BEGIN_CFG
 Size
    1465
 AtomData:  id type       cartes_x      cartes_y      cartes_z
             1   14       4.883350      2.781130      4.005310
             2   14       3.212630      4.451490      3.614290
             3    5       6.520310      3.783840      3.553590
             4   14       1.366110      6.830570      1.366110
             5   14       4.098340      9.562800      1.366110
             6   14       1.160740     10.037400      2.410340
             7   14       2.796790      8.025450      3.018400
             8   14       4.870800      6.630640      2.882210
             9   14       8.421700      5.658110      2.752730
            10   14       6.431880      9.174740      1.513010
            11   14       6.830570      6.830570      1.366110
            12   14       7.651970      9.360300      3.463390
            13   14      10.148900      7.157270      3.919410
            14   14       3.920290      2.793800      6.311750
            15   14       1.899810      2.497740      4.729130
            16    7       4.193790      1.045220      6.559960
            17   14       1.026360      3.967770      6.829410
            18   14       3.646240      5.240950      6.424340
            19    7       2.227170      5.152050      7.458110
            20    5       5.382660      5.176630      8.017720
            21   14       7.945140      2.907500      4.914000
            22    5       7.547040      4.805480      4.295540
            23   14      10.524900      5.298750      5.322850
            24    7       6.612560      4.344150      7.880190
            25    5       7.838820      5.123960      7.976850
            26    7       2.969100      5.640140      4.847110
            27    7       4.996800      6.252970      7.108030
            28   14       3.582780      9.432260      4.652270
            29   14       1.509880      6.804300      4.702750
            30   14       1.767690      9.467470      6.311660
            31   14       1.431440      6.695630      7.710620
            32    7       1.488670      7.674140      6.300730
            33    5       5.457880      7.665990      7.192870
            34   14       0.153481      9.904440      4.615930
            35    7       4.740040      8.446980      8.179320
            36   14       8.872170     10.840600      5.069510
            37    7       8.020240     10.578500      6.591290
            38    7       6.050080     10.433600      8.160800
            39    7       5.621430      6.938810      4.485710
            40   14       5.841510      8.707810      4.844740
            41   14       8.207440      5.642560      6.062510
            42    5       6.782630      9.899490      7.078140
            43    5       6.664630      6.047880      4.724950
            44    5       9.264540      8.782390      4.678430
            45   14       8.343740      7.983100      6.201680
            46    7       6.556520      8.508440      6.535660
            47    7       9.416450      8.746170      7.516840
            48    5       8.968870     10.155100      7.626730
            49    7       0.657061      2.938780      8.206760
            50   14      12.360350      6.695630      7.710620
            51    7      12.417580      7.674140      6.300730
            52   14      11.082391      9.904440      4.615930
            53   14      -0.780010      7.157270      3.919410
            54   14      -0.404010      5.298750      5.322850
            55   14      -2.056740     10.840600      5.069510
            56    5      -1.664370      8.782390      4.678430
            57   14      -2.585170      7.983100      6.201680
            58    7      -1.512460      8.746170      7.516840
            59    5      -1.960040     10.155100      7.626730
            60   14       4.497700     12.614580      1.632750
            61   14       4.883350     13.710040      4.005310
            62   14       3.140010     11.328497      3.019380
            63    5       6.520310     14.712750      3.553590
            64   14       7.121770     11.833106      3.731120
            65   14       5.058200     11.380518      5.044260
            66   14       3.920290     13.722710      6.311750
            67   14       1.899810     13.426650      4.729130
            68   14       2.937220     11.176964      7.591060
            69    7       4.193790     11.974130      6.559960
            70   14       0.773422     12.094090      7.904990
            71   14       1.026360     14.896680      6.829410
            72   14       3.646240     16.169860      6.424340
            73    5       5.382660     16.105540      8.017720
            74   14       7.945140     13.836410      4.914000
            75   14       0.186090     12.015280      5.556470
            76    7       6.612560     15.273060      7.880190
            77    7       0.657061     13.867690      8.206760
            78   14      11.702332     12.094090      7.904990
            79   14      11.115000     12.015280      5.556470
            80    7       5.566390      1.041240     10.023600
            81    5       1.412470      3.796960     11.342300
            82    7       5.101700      4.607750     12.190700
            83    7       1.102510      2.486010     10.986600
            84    7       5.429640      2.226700     12.197500
            85    5       3.770310      4.711220     12.069100
            86    7       4.683220      5.088240      9.351530
            87    7       2.436270      4.433000     12.312200
            88    5       6.007200      2.075850     10.880700
            89   14       5.894490      4.873960     10.632700
            90    5       6.265090      0.792682      8.786060
            91    7       6.823800      3.272560     10.283700
            92    5       6.825010      3.134780      8.757750
            93    5       8.571140      1.490240      8.926350
            94    7       9.120910      2.494370      9.802760
            95    7       7.290610      1.818520      8.406490
            96    5       8.340310      3.204750     10.708500
            97    7       8.849210      3.913090     11.907400
            98    5       9.960690      4.837420     11.760000
            99    7      10.870000      4.638040     10.616600
           100    7       1.115180     10.904800     11.824800
           101    5       2.580920     10.793100     12.248000
           102    7       3.748640     10.643600      9.095120
           103    5       3.845730      6.159760      9.736360
           104    5       4.808830      9.823930      8.471700
           105    5       3.968010      7.755810      9.130140
           106    5       1.225230      7.903370     11.212700
           107    5       2.480190      7.090860      9.331290
           108    5       3.708070      7.607310     10.837000
           109    5       0.899062      7.191120      9.657090
           110    7       0.279213      8.422410     12.261400
           111    7       2.564030      8.243700     11.639600
           112    7       4.878780      7.629770     11.778600
           113    5      10.091100     10.833600      9.692260
           114    5       0.008273      9.850750     11.826200
           115    7       9.789180      9.934710     10.863600
           116    7       6.771720      6.388020     10.635700
           117    7      10.682100      6.810340      8.758530
           118    5       9.661590      7.927160      8.702070
           119    5      10.221800      5.481510      9.417920
           120    7       8.647770      5.424030      9.152540
           121    5       8.010880      6.550770      9.849490
           122    5       8.911040      8.750460     10.899800
           123    7       8.707220      7.780020      9.760260
           124    5      10.823200      7.129520     12.356100
           125    5       6.155800      7.185730     11.600800
           126    7       8.488490      8.110120     12.180200
           127    7      10.076200      6.062710     12.661500
           128    5       5.621540      3.425250     13.018000
           129    7       5.529610      3.638710     14.388100
           130    7       2.954860      4.567270     14.887200
           131    5       2.620380      3.817770     13.659200
           132    5       8.334610      3.829590     13.179900
           133   14       4.985020      8.130700     13.660800
           134    5       3.632020      5.730200     14.782300
           135    7       4.094810      6.951680     14.709600
           136    5       2.919500      9.242380     12.676400
           137    5       4.048480      9.840760     13.639000
           138    5       7.126620      8.260780     12.627500
           139    5       8.008080      5.457820     14.804300
           140    7       8.040690      6.700330     14.121500
           141    5       8.949000      6.918350     12.998100
           142    5       6.839920      7.593060     14.236800
           143    5      11.827972      7.191120      9.657090
           144    7      11.208123      8.422410     12.261400
           145    5      10.937183      9.850750     11.826200
           146   14      -0.088810      2.888670      9.809340
           147    5      -0.968220      4.837420     11.760000
           148    7      -0.058910      4.638040     10.616600
           149    5      -0.837810     10.833600      9.692260
           150    7      -1.139730      9.934710     10.863600
           151    7      -0.246810      6.810340      8.758530
           152    5      -1.267320      7.927160      8.702070
           153    5      -0.707110      5.481510      9.417920
           154    7      -2.281140      5.424030      9.152540
           155    5      -2.017870      8.750460     10.899800
           156    7      -2.221690      7.780020      9.760260
           157    5      -0.105710      7.129520     12.356100
           158    7      -0.852710      6.062710     12.661500
           159    7       5.566390     11.970150     10.023600
           160    5       1.412470     14.725870     11.342300
           161    5       0.983895     11.946990     10.879400
           162    7       3.602800     11.598466     11.538500
           163    5       4.267050     11.397128     10.214200
           164    7       1.102510     13.414920     10.986600
           165    7       5.429640     13.155610     12.197500
           166    7       0.355824     11.668302      9.609320
           167    7       4.683220     16.017150      9.351530
           168    5       4.208780     12.480530     12.527700
           169    5       6.007200     13.004760     10.880700
           170   14       5.894490     15.802870     10.632700
           171    5       6.265090     11.721592      8.786060
           172    7       6.823800     14.201470     10.283700
           173    5       6.825010     14.063690      8.757750
           174    5       8.571140     12.419150      8.926350
           175    7       9.120910     13.423280      9.802760
           176    7       9.138360     11.078391      8.703090
           177    7       7.290610     12.747430      8.406490
           178    5       8.340310     14.133660     10.708500
           179    5       5.621540     14.354160     13.018000
           180    5       3.274770     13.055430     13.827400
           181    7      11.284734     11.668302      9.609320
           182   14      -0.088810     13.817580      9.809340
           183    7      -1.790550     11.078391      8.703090
           184   14       0.000000      0.000000      0.000000
           185   14       2.732230      2.732230      0.000000
           186   14       1.366110      1.366110      1.366110
           187   14       4.098340      4.098340      1.366110
           188   14       4.497700      1.685670      1.632750
           189   14       1.632420      4.447960      1.683710
           190   14       3.140010      0.399587      3.019380
           191   14       0.041390      2.816720      2.628080
           192   14       5.464460      0.000000      0.000000
           193   14       8.196680      2.732230      0.000000
           194   14       6.830570      1.366110      1.366110
           195   14       9.562800      4.098340      1.366110
           196   14       6.640080      3.869860      1.474860
           197   14       7.121770      0.904196      3.731120
           198   14       9.302320      1.130470      1.536620
           199   14       0.000000      5.464460      0.000000
           200   14       2.732230      8.196680      0.000000
           201    5       0.953685      9.140640      0.594384
           202   14      10.041600      7.280200      1.489150
           203   14       5.464460      5.464460      0.000000
           204   14       8.196680      8.196680      0.000000
           205   14       9.562800      9.562800      1.366110
           206   14       5.058200      0.451608      5.044260
           207   14       2.937220      0.248054      7.591060
           208   14       0.773422      1.165180      7.904990
           209   14       0.186090      1.086370      5.556470
           210   14      10.211700      3.004670      4.721350
           211   14      10.928910      0.000000      0.000000
           212   14      13.661140      2.732230      0.000000
           213   14      12.295020      1.366110      1.366110
           214   14      15.027250      4.098340      1.366110
           215   14      15.426610      1.685670      1.632750
           216   14      12.561330      4.447960      1.683710
           217   14      15.812260      2.781130      4.005310
           218   14      14.068920      0.399587      3.019380
           219   14      14.141540      4.451490      3.614290
           220   14      10.970300      2.816720      2.628080
           221   14      16.393370      0.000000      0.000000
           222   14      19.125590      2.732230      0.000000
           223   14      17.759480      1.366110      1.366110
           224   14      20.491710      4.098340      1.366110
           225   14      17.568990      3.869860      1.474860
           226    5      17.449220      3.783840      3.553590
           227   14      18.050680      0.904196      3.731120
           228   14      20.231230      1.130470      1.536620
           229   14      10.928910      5.464460      0.000000
           230   14      13.661140      8.196680      0.000000
           231   14      12.295020      6.830570      1.366110
           232   14      15.027250      9.562800      1.366110
           233    5      11.882595      9.140640      0.594384
           234   14      12.089650     10.037400      2.410340
           235   14      13.725700      8.025450      3.018400
           236   14      15.799710      6.630640      2.882210
           237   14      19.350610      5.658110      2.752730
           238   14      17.360790      9.174740      1.513010
           239   14      20.970510      7.280200      1.489150
           240   14      16.393370      5.464460      0.000000
           241   14      19.125590      8.196680      0.000000
           242   14      17.759480      6.830570      1.366110
           243   14      20.491710      9.562800      1.366110
           244   14      18.580880      9.360300      3.463390
           245   14      21.077810      7.157270      3.919410
           246   14      15.987110      0.451608      5.044260
           247   14      14.849200      2.793800      6.311750
           248   14      12.828720      2.497740      4.729130
           249   14      13.866130      0.248054      7.591060
           250    7      15.122700      1.045220      6.559960
           251   14      11.702332      1.165180      7.904990
           252   14      11.955270      3.967770      6.829410
           253   14      14.575150      5.240950      6.424340
           254    7      13.156080      5.152050      7.458110
           255    5      16.311570      5.176630      8.017720
           256   14      18.874050      2.907500      4.914000
           257   14      11.115000      1.086370      5.556470
           258   14      21.140610      3.004670      4.721350
           259    5      18.475950      4.805480      4.295540
           260   14      21.453810      5.298750      5.322850
           261    7      17.541470      4.344150      7.880190
           262    5      18.767730      5.123960      7.976850
           263    7      13.898010      5.640140      4.847110
           264    7      15.925710      6.252970      7.108030
           265   14      14.511690      9.432260      4.652270
           266   14      12.438790      6.804300      4.702750
           267   14      12.696600      9.467470      6.311660
           268    5      16.386790      7.665990      7.192870
           269    7      15.668950      8.446980      8.179320
           270   14      19.801080     10.840600      5.069510
           271    7      18.949150     10.578500      6.591290
           272    7      16.978990     10.433600      8.160800
           273    7      16.550340      6.938810      4.485710
           274   14      16.770420      8.707810      4.844740
           275   14      19.136350      5.642560      6.062510
           276    5      17.711540      9.899490      7.078140
           277    5      17.593540      6.047880      4.724950
           278    5      20.193450      8.782390      4.678430
           279   14      19.272650      7.983100      6.201680
           280    7      17.485430      8.508440      6.535660
           281    7      20.345360      8.746170      7.516840
           282    5      19.897780     10.155100      7.626730
           283    7      11.585971      2.938780      8.206760
           284   14     -10.928910      0.000000      0.000000
           285   14      -8.196680      2.732230      0.000000
           286   14      -9.562800      1.366110      1.366110
           287   14      -6.830570      4.098340      1.366110
           288   14      -6.431210      1.685670      1.632750
           289   14      -9.296490      4.447960      1.683710
           290   14      -6.045560      2.781130      4.005310
           291   14      -7.788900      0.399587      3.019380
           292   14      -7.716280      4.451490      3.614290
           293   14     -10.887520      2.816720      2.628080
           294   14      -5.464450      0.000000      0.000000
           295   14      -2.732230      2.732230      0.000000
           296   14      -4.098340      1.366110      1.366110
           297   14      -1.366110      4.098340      1.366110
           298   14      -4.288830      3.869860      1.474860
           299    5      -4.408600      3.783840      3.553590
           300   14      -3.807140      0.904196      3.731120
           301   14      -1.626590      1.130470      1.536620
           302   14     -10.928910      5.464460      0.000000
           303   14      -8.196680      8.196680      0.000000
           304   14      -9.562800      6.830570      1.366110
           305   14      -6.830570      9.562800      1.366110
           306    5      -9.975225      9.140640      0.594384
           307   14      -9.768170     10.037400      2.410340
           308   14      -8.132120      8.025450      3.018400
           309   14      -6.058110      6.630640      2.882210
           310   14      -2.507210      5.658110      2.752730
           311   14      -4.497030      9.174740      1.513010
           312   14      -0.887310      7.280200      1.489150
           313   14      -5.464450      5.464460      0.000000
           314   14      -2.732230      8.196680      0.000000
           315   14      -4.098340      6.830570      1.366110
           316   14      -1.366110      9.562800      1.366110
           317   14      -3.276940      9.360300      3.463390
           318   14      -5.870710      0.451608      5.044260
           319   14      -7.008620      2.793800      6.311750
           320   14      -9.029100      2.497740      4.729130
           321   14      -7.991690      0.248054      7.591060
           322    7      -6.735120      1.045220      6.559960
           323   14     -10.155488      1.165180      7.904990
           324   14      -9.902550      3.967770      6.829410
           325   14      -7.282670      5.240950      6.424340
           326    7      -8.701740      5.152050      7.458110
           327    5      -5.546250      5.176630      8.017720
           328   14      -2.983770      2.907500      4.914000
           329   14     -10.742820      1.086370      5.556470
           330   14      -0.717210      3.004670      4.721350
           331    5      -3.381870      4.805480      4.295540
           332    7      -4.316350      4.344150      7.880190
           333    5      -3.090090      5.123960      7.976850
           334    7      -7.959810      5.640140      4.847110
           335    7      -5.932110      6.252970      7.108030
           336   14      -7.346130      9.432260      4.652270
           337   14      -9.419030      6.804300      4.702750
           338   14      -9.161220      9.467470      6.311660
           339   14      -9.497470      6.695630      7.710620
           340    7      -9.440240      7.674140      6.300730
           341    5      -5.471030      7.665990      7.192870
           342   14     -10.775429      9.904440      4.615930
           343    7      -6.188870      8.446980      8.179320
           344    7      -2.908670     10.578500      6.591290
           345    7      -4.878830     10.433600      8.160800
           346    7      -5.307480      6.938810      4.485710
           347   14      -5.087400      8.707810      4.844740
           348   14      -2.721470      5.642560      6.062510
           349    5      -4.146280      9.899490      7.078140
           350    5      -4.264280      6.047880      4.724950
           351    7      -4.372390      8.508440      6.535660
           352    7     -10.271849      2.938780      8.206760
           353   14      21.857820      0.000000      0.000000
           354   14      21.899210      2.816720      2.628080
           355   14      21.857820      5.464460      0.000000
           356   14       0.000000     10.928910      0.000000
           357   14       2.732230     13.661140      0.000000
           358   14       1.366110     12.295020      1.366110
           359   14       4.098340     15.027250      1.366110
           360   14       1.632420     15.376870      1.683710
           361   14       3.212630     15.380400      3.614290
           362   14       0.041390     13.745630      2.628080
           363   14       5.464460     10.928910      0.000000
           364   14       8.196680     13.661140      0.000000
           365   14       6.830570     12.295020      1.366110
           366   14       9.562800     15.027250      1.366110
           367   14       6.640080     14.798770      1.474860
           368   14       9.302320     12.059380      1.536620
           369   14       0.000000     16.393370      0.000000
           370   14       2.732230     19.125590      0.000000
           371   14       1.366110     17.759480      1.366110
           372   14       4.098340     20.491710      1.366110
           373    5       0.953685     20.069550      0.594384
           374   14       1.160740     20.966310      2.410340
           375   14       2.796790     18.954360      3.018400
           376   14       4.870800     17.559550      2.882210
           377   14       8.421700     16.587020      2.752730
           378   14       6.431880     20.103650      1.513010
           379   14      10.041600     18.209110      1.489150
           380   14       5.464460     16.393370      0.000000
           381   14       8.196680     19.125590      0.000000
           382   14       6.830570     17.759480      1.366110
           383   14       9.562800     20.491710      1.366110
           384   14       7.651970     20.289210      3.463390
           385   14      10.148900     18.086180      3.919410
           386    7       2.227170     16.080960      7.458110
           387   14      10.211700     13.933580      4.721350
           388    5       7.547040     15.734390      4.295540
           389   14      10.524900     16.227660      5.322850
           390    5       7.838820     16.052870      7.976850
           391    7       2.969100     16.569050      4.847110
           392    7       4.996800     17.181880      7.108030
           393   14       3.582780     20.361170      4.652270
           394   14       1.509880     17.733210      4.702750
           395   14       1.767690     20.396380      6.311660
           396   14       1.431440     17.624540      7.710620
           397    7       1.488670     18.603050      6.300730
           398    5       5.457880     18.594900      7.192870
           399   14       0.153481     20.833350      4.615930
           400    7       4.740040     19.375890      8.179320
           401   14       8.872170     21.769510      5.069510
           402    7       8.020240     21.507410      6.591290
           403    7       6.050080     21.362510      8.160800
           404    7       5.621430     17.867720      4.485710
           405   14       5.841510     19.636720      4.844740
           406   14       8.207440     16.571470      6.062510
           407    5       6.782630     20.828400      7.078140
           408    5       6.664630     16.976790      4.724950
           409    5       9.264540     19.711300      4.678430
           410   14       8.343740     18.912010      6.201680
           411    7       6.556520     19.437350      6.535660
           412    7       9.416450     19.675080      7.516840
           413    5       8.968870     21.084010      7.626730
           414   14      10.928910     10.928910      0.000000
           415   14      13.661140     13.661140      0.000000
           416   14      12.295020     12.295020      1.366110
           417   14      15.027250     15.027250      1.366110
           418   14      15.426610     12.614580      1.632750
           419   14      12.561330     15.376870      1.683710
           420   14      15.812260     13.710040      4.005310
           421   14      14.068920     11.328497      3.019380
           422   14      14.141540     15.380400      3.614290
           423   14      10.970300     13.745630      2.628080
           424   14      16.393370     10.928910      0.000000
           425   14      19.125590     13.661140      0.000000
           426   14      17.759480     12.295020      1.366110
           427   14      20.491710     15.027250      1.366110
           428   14      17.568990     14.798770      1.474860
           429    5      17.449220     14.712750      3.553590
           430   14      18.050680     11.833106      3.731120
           431   14      20.231230     12.059380      1.536620
           432   14      10.928910     16.393370      0.000000
           433   14      13.661140     19.125590      0.000000
           434   14      12.295020     17.759480      1.366110
           435   14      15.027250     20.491710      1.366110
           436    5      11.882595     20.069550      0.594384
           437   14      12.089650     20.966310      2.410340
           438   14      13.725700     18.954360      3.018400
           439   14      15.799710     17.559550      2.882210
           440   14      19.350610     16.587020      2.752730
           441   14      17.360790     20.103650      1.513010
           442   14      20.970510     18.209110      1.489150
           443   14      16.393370     16.393370      0.000000
           444   14      19.125590     19.125590      0.000000
           445   14      17.759480     17.759480      1.366110
           446   14      20.491710     20.491710      1.366110
           447   14      18.580880     20.289210      3.463390
           448   14      21.077810     18.086180      3.919410
           449   14      15.987110     11.380518      5.044260
           450   14      14.849200     13.722710      6.311750
           451   14      12.828720     13.426650      4.729130
           452   14      13.866130     11.176964      7.591060
           453    7      15.122700     11.974130      6.559960
           454   14      11.955270     14.896680      6.829410
           455   14      14.575150     16.169860      6.424340
           456    7      13.156080     16.080960      7.458110
           457    5      16.311570     16.105540      8.017720
           458   14      18.874050     13.836410      4.914000
           459   14      21.140610     13.933580      4.721350
           460    5      18.475950     15.734390      4.295540
           461   14      21.453810     16.227660      5.322850
           462    7      17.541470     15.273060      7.880190
           463    5      18.767730     16.052870      7.976850
           464    7      13.898010     16.569050      4.847110
           465    7      15.925710     17.181880      7.108030
           466   14      14.511690     20.361170      4.652270
           467   14      12.438790     17.733210      4.702750
           468   14      12.696600     20.396380      6.311660
           469   14      12.360350     17.624540      7.710620
           470    7      12.417580     18.603050      6.300730
           471    5      16.386790     18.594900      7.192870
           472   14      11.082391     20.833350      4.615930
           473    7      15.668950     19.375890      8.179320
           474   14      19.801080     21.769510      5.069510