BEGIN_CFG
 Size
    535
 AtomData:  id type       cartes_x      cartes_y      cartes_z
             1   14       5.530750      2.775120      2.704110
             2   14       4.098340      4.098340      1.366110
             3   14       1.141010      4.406500      4.156290
             4   14       4.195790      1.440140      4.144410
             5   14       6.790410      4.126950      4.189810
             6   14       2.732230      8.196680      0.000000
             7   14       5.568960      8.285870      2.746920
             8   14       2.765430      5.508020      2.737610
             9   14       1.366110      6.830570      1.366110
            10   14       4.098340      9.562800      1.366110
            11   14       1.248880      9.691070      4.039350
            12   14       4.150360      6.988590      4.099500
            13   14       5.464460      5.464460      0.000000
            14   14       0.014790      8.223760      2.781560
            15   14       8.191260      5.487870      2.779820
            16   14       6.830570      6.830570      1.366110
            17   14       9.562800      9.562800      1.366110
            18   14       6.902420      9.674060      4.044280
            19   14       9.544460      6.916070      4.139870
            20   14       5.390420     10.811503      5.511450
            21   14       1.839890      2.031120      4.645860
            22   14       1.076520      1.283800      6.767400
            23   14       3.203490      3.706370      5.056010
            24   14       4.156970      4.440340      7.148660
            25   14       2.170150     10.513100      7.960270
            26   14      10.687200     10.836000      5.471920
            27   14       7.952530      2.740260      5.809230
            28   14       6.789520      0.946502      7.014700
            29   14       9.474460      4.306300      7.002300
            30   14       0.294485      3.067900      8.067250
            31   14       5.397000      5.576230      5.536960
            32   14       2.527040      8.202550      5.269640
            33   14       1.555130      6.865070      6.892220
            34   14       3.941850      9.377290      6.783150
            35   14       3.680020      6.555360      8.123490
            36   14      10.829768      5.633680      5.627180
            37   14       8.189960      8.322360      5.458530
            38   14       6.743100      6.979200      6.897170
            39   14       9.477440      9.461550      7.065080
            40   14       0.583228      8.794120      8.020070
            41    5       5.054700      7.971890      7.554710
            42   14      10.943700      8.223760      2.781560
            43   14      11.223395      3.067900      8.067250
            44   14      12.484040      6.865070      6.892220
            45   14      11.512138      8.794120      8.020070
            46   14      -1.384450      6.916070      4.139870
            47   14      -0.241710     10.836000      5.471920
            48   14      -1.454450      4.306300      7.002300
            49   14      -0.099142      5.633680      5.627180
            50   14      -1.451470      9.461550      7.065080
            51   14       5.530750     13.704030      2.704110
            52   14       2.773160     10.934800      2.711630
            53   14       4.195790     12.369050      4.144410
            54   14       8.286830     11.015200      2.741860
            55   14       6.830570     12.295020      1.366110
            56   14       9.324820     12.470960      4.318150
            57   14       1.839890     12.960030      4.645860
            58   14       1.076520     12.212710      6.767400
            59   14       3.203490     14.635280      5.056010
            60   14       4.156970     15.369250      7.148660
            61   14       7.952530     13.669170      5.809230
            62   14       6.789520     11.875412      7.014700
            63   14       0.294485     13.996810      8.067250
            64   14       7.766770     10.288400      8.408180
            65   14       6.676530      8.262770      8.834930
            66   14       8.239860      5.844910      8.344310
            67   14       0.000000      0.000000      0.000000
            68   14       2.732230      2.732230      0.000000
            69   14       2.773160      0.005890      2.711630
            70   14       1.366110      1.366110      1.366110
            71   14       5.464460      0.000000      0.000000
            72   14       8.196680      2.732230      0.000000
            73   14      10.898935      2.746830      2.945450
            74   14       8.286830      0.086290      2.741860
            75   14       6.830570      1.366110      1.366110
            76   14       9.562800      4.098340      1.366110
            77   14       9.324820      1.542050      4.318150
            78   14       0.000000      5.464460      0.000000
            79   14       8.196680      8.196680      0.000000
            80   14      10.928910      0.000000      0.000000
            81   14      13.661140      2.732230      0.000000
            82   14      16.459660      2.775120      2.704110
            83   14      13.702070      0.005890      2.711630
            84   14      12.295020      1.366110      1.366110
            85   14      15.027250      4.098340      1.366110
            86   14      12.069920      4.406500      4.156290
            87   14      15.124700      1.440140      4.144410
            88   14      16.393370      0.000000      0.000000
            89   14      19.125590      2.732230      0.000000
            90   14      21.827845      2.746830      2.945450
            91   14      19.215740      0.086290      2.741860
            92   14      17.759480      1.366110      1.366110
            93   14      20.491710      4.098340      1.366110
            94   14      17.719320      4.126950      4.189810
            95   14      20.253730      1.542050      4.318150
            96   14      10.928910      5.464460      0.000000
            97   14      13.661140      8.196680      0.000000
            98   14      16.497870      8.285870      2.746920
            99   14      13.694340      5.508020      2.737610
           100   14      12.295020      6.830570      1.366110
           101   14      15.027250      9.562800      1.366110
           102   14      12.177790      9.691070      4.039350
           103   14      15.079270      6.988590      4.099500
           104   14      16.393370      5.464460      0.000000
           105   14      19.125590      8.196680      0.000000
           106   14      19.120170      5.487870      2.779820
           107   14      17.759480      6.830570      1.366110
           108   14      20.491710      9.562800      1.366110
           109   14      17.831330      9.674060      4.044280
           110   14      20.473370      6.916070      4.139870
           111   14      16.319330     10.811503      5.511450
           112   14      12.768800      2.031120      4.645860
           113   14      12.005430      1.283800      6.767400
           114   14      14.132400      3.706370      5.056010
           115   14      15.085880      4.440340      7.148660
           116   14      13.099060     10.513100      7.960270
           117   14      21.616110     10.836000      5.471920
           118   14      18.881440      2.740260      5.809230
           119   14      17.718430      0.946502      7.014700
           120   14      20.403370      4.306300      7.002300
           121   14      16.325910      5.576230      5.536960
           122   14      13.455950      8.202550      5.269640
           123   14      14.870760      9.377290      6.783150
           124   14      14.608930      6.555360      8.123490
           125   14      21.758678      5.633680      5.627180
           126   14      19.118870      8.322360      5.458530
           127   14      17.672010      6.979200      6.897170
           128   14      20.406350      9.461550      7.065080
           129    5      15.983610      7.971890      7.554710
           130   14     -10.928910      0.000000      0.000000
           131   14      -8.196680      2.732230      0.000000
           132   14      -5.398160      2.775120      2.704110
           133   14      -8.155750      0.005890      2.711630
           134   14      -9.562800      1.366110      1.366110
           135   14      -6.830570      4.098340      1.366110
           136   14      -9.787900      4.406500      4.156290
           137   14      -6.733120      1.440140      4.144410
           138   14      -5.464450      0.000000      0.000000
           139   14      -2.732230      2.732230      0.000000
           140   14      -0.029975      2.746830      2.945450
           141   14      -2.642080      0.086290      2.741860
           142   14      -4.098340      1.366110      1.366110
           143   14      -1.366110      4.098340      1.366110
           144   14      -4.138500      4.126950      4.189810
           145   14      -1.604090      1.542050      4.318150
           146   14     -10.928910      5.464460      0.000000
           147   14      -8.196680      8.196680      0.000000
           148   14      -5.359950      8.285870      2.746920
           149   14      -8.163480      5.508020      2.737610
           150   14      -9.562800      6.830570      1.366110
           151   14      -6.830570      9.562800      1.366110
           152   14      -9.680030      9.691070      4.039350
           153   14      -6.778550      6.988590      4.099500
           154   14      -5.464450      5.464460      0.000000
           155   14      -2.732230      8.196680      0.000000
           156   14     -10.914120      8.223760      2.781560
           157   14      -2.737650      5.487870      2.779820
           158   14      -4.098340      6.830570      1.366110
           159   14      -1.366110      9.562800      1.366110
           160   14      -4.026490      9.674060      4.044280
           161   14      -5.538490     10.811503      5.511450
           162   14      -9.089020      2.031120      4.645860
           163   14      -9.852390      1.283800      6.767400
           164   14      -7.725420      3.706370      5.056010
           165   14      -6.771940      4.440340      7.148660
           166   14      -8.758760     10.513100      7.960270
           167   14      -2.976380      2.740260      5.809230
           168   14      -4.139390      0.946502      7.014700
           169   14     -10.634425      3.067900      8.067250
           170   14      -5.531910      5.576230      5.536960
           171   14      -8.401870      8.202550      5.269640
           172   14      -9.373780      6.865070      6.892220
           173   14      -6.987060      9.377290      6.783150
           174   14      -7.248890      6.555360      8.123490
           175   14      -2.738950      8.322360      5.458530
           176   14      -4.185810      6.979200      6.897170
           177   14     -10.345682      8.794120      8.020070
           178    5      -5.874210      7.971890      7.554710
           179   14      21.857820      0.000000      0.000000
           180   14      21.857820      5.464460      0.000000
           181   14      21.872610      8.223760      2.781560
           182   14     -10.958885      2.746830      2.945450
           183   14       0.000000     10.928910      0.000000
           184   14       2.732230     13.661140      0.000000
           185   14       1.366110     12.295020      1.366110
           186   14       4.098340     15.027250      1.366110
           187   14       1.141010     15.335410      4.156290
           188   14       5.464460     10.928910      0.000000
           189   14       8.196680     13.661140      0.000000
           190   14      10.898935     13.675740      2.945450
           191   14       9.562800     15.027250      1.366110
           192   14       6.790410     15.055860      4.189810
           193   14       0.000000     16.393370      0.000000
           194   14       2.732230     19.125590      0.000000
           195   14       5.568960     19.214780      2.746920
           196   14       2.765430     16.436930      2.737610
           197   14       1.366110     17.759480      1.366110
           198   14       4.098340     20.491710      1.366110
           199   14       1.248880     20.619980      4.039350
           200   14       4.150360     17.917500      4.099500
           201   14       5.464460     16.393370      0.000000
           202   14       8.196680     19.125590      0.000000
           203   14       0.014790     19.152670      2.781560
           204   14       8.191260     16.416780      2.779820
           205   14       6.830570     17.759480      1.366110
           206   14       9.562800     20.491710      1.366110
           207   14       6.902420     20.602970      4.044280
           208   14       9.544460     17.844980      4.139870
           209   14       5.390420     21.740413      5.511450
           210   14       2.170150     21.442010      7.960270
           211   14      10.687200     21.764910      5.471920
           212   14       9.474460     15.235210      7.002300
           213   14       5.397000     16.505140      5.536960
           214   14       2.527040     19.131460      5.269640
           215   14       1.555130     17.793980      6.892220
           216   14       3.941850     20.306200      6.783150
           217   14       3.680020     17.484270      8.123490
           218   14      10.829768     16.562590      5.627180
           219   14       8.189960     19.251270      5.458530
           220   14       6.743100     17.908110      6.897170
           221   14       9.477440     20.390460      7.065080
           222   14       0.583228     19.723030      8.020070
           223    5       5.054700     18.900800      7.554710
           224   14      10.928910     10.928910      0.000000
           225   14      13.661140     13.661140      0.000000
           226   14      16.459660     13.704030      2.704110
           227   14      13.702070     10.934800      2.711630
           228   14      12.295020     12.295020      1.366110
           229   14      15.027250     15.027250      1.366110
           230   14      12.069920     15.335410      4.156290
           231   14      15.124700     12.369050      4.144410
           232   14      16.393370     10.928910      0.000000
           233   14      19.125590     13.661140      0.000000
           234   14      21.827845     13.675740      2.945450
           235   14      19.215740     11.015200      2.741860
           236   14      17.759480     12.295020      1.366110
           237   14      20.491710     15.027250      1.366110
           238   14      17.719320     15.055860      4.189810
           239   14      20.253730     12.470960      4.318150
           240   14      10.928910     16.393370      0.000000
           241   14      13.661140     19.125590      0.000000
           242   14      16.497870     19.214780      2.746920
           243   14      13.694340     16.436930      2.737610
           244   14      12.295020     17.759480      1.366110
           245   14      15.027250     20.491710      1.366110
           246   14      12.177790     20.619980      4.039350
           247   14      15.079270     17.917500      4.099500
           248   14      16.393370     16.393370      0.000000
           249   14      19.125590     19.125590      0.000000
           250   14      10.943700     19.152670      2.781560
           251   14      19.120170     16.416780      2.779820
           252   14      17.759480     17.759480      1.366110
           253   14      20.491710     20.491710      1.366110
           254   14      17.831330     20.602970      4.044280
           255   14      20.473370     17.844980      4.139870
           256   14      16.319330     21.740413      5.511450
           257   14      12.768800     12.960030      4.645860
           258   14      12.005430     12.212710      6.767400
           259   14      14.132400     14.635280      5.056010
           260   14      15.085880     15.369250      7.148660
           261   14      13.099060     21.442010      7.960270
           262   14      21.616110     21.764910      5.471920
           263   14      18.881440     13.669170      5.809230
           264   14      17.718430     11.875412      7.014700
           265   14      20.403370     15.235210      7.002300
           266   14      11.223395     13.996810      8.067250
           267   14      16.325910     16.505140      5.536960
           268   14      13.455950     19.131460      5.269640
           269   14      12.484040     17.793980      6.892220
           270   14      14.870760     20.306200      6.783150
           271   14      14.608930     17.484270      8.123490
           272   14      21.758678     16.562590      5.627180
           273   14      19.118870     19.251270      5.458530
           274   14      17.672010     17.908110      6.897170
           275   14      20.406350     20.390460      7.065080
           276   14      11.512138     19.723030      8.020070
           277    5      15.983610     18.900800      7.554710
           278   14     -10.928910     10.928910      0.000000
           279   14      -8.196680     13.661140      0.000000
           280   14      -5.398160     13.704030      2.704110
           281   14      -8.155750     10.934800      2.711630
           282   14      -9.562800     12.295020      1.366110
           283   14      -6.830570     15.027250      1.366110
           284   14      -9.787900     15.335410      4.156290
           285   14      -6.733120     12.369050      4.144410
           286   14      -5.464450     10.928910      0.000000
           287   14      -2.732230     13.661140      0.000000
           288   14      -0.029975     13.675740      2.945450
           289   14      -2.642080     11.015200      2.741860
           290   14      -4.098340     12.295020      1.366110
           291   14      -1.366110     15.027250      1.366110
           292   14      -4.138500     15.055860      4.189810
           293   14      -1.604090     12.470960      4.318150
           294   14     -10.928910     16.393370      0.000000
           295   14      -8.196680     19.125590      0.000000
           296   14      -5.359950     19.214780      2.746920
           297   14      -8.163480     16.436930      2.737610
           298   14      -9.562800     17.759480      1.366110
           299   14      -6.830570     20.491710      1.366110
           300   14      -9.680030     20.619980      4.039350
           301   14      -6.778550     17.917500      4.099500
           302   14      -5.464450     16.393370      0.000000
           303   14      -2.732230     19.125590      0.000000
           304   14     -10.914120     19.152670      2.781560
           305   14      -2.737650     16.416780      2.779820
           306   14      -4.098340     17.759480      1.366110
           307   14      -1.366110     20.491710      1.366110
           308   14      -4.026490     20.602970      4.044280
           309   14      -1.384450     17.844980      4.139870
           310   14      -5.538490     21.740413      5.511450
           311   14      -9.089020     12.960030      4.645860
           312   14      -9.852390     12.212710      6.767400
           313   14      -7.725420     14.635280      5.056010
           314   14      -6.771940     15.369250      7.148660
           315   14      -8.758760     21.442010      7.960270
           316   14      -0.241710     21.764910      5.471920
           317   14      -2.976380     13.669170      5.809230
           318   14      -4.139390     11.875412      7.014700
           319   14      -1.454450     15.235210      7.002300
           320   14     -10.634425     13.996810      8.067250
           321   14      -5.531910     16.505140      5.536960
           322   14      -8.401870     19.131460      5.269640
           323   14      -9.373780     17.793980      6.892220
           324   14      -6.987060     20.306200      6.783150
           325   14      -7.248890     17.484270      8.123490
           326   14      -0.099142     16.562590      5.627180
           327   14      -2.738950     19.251270      5.458530
           328   14      -4.185810     17.908110      6.897170
           329   14      -1.451470     20.390460      7.065080
           330   14     -10.345682     19.723030      8.020070
           331    5      -5.874210     18.900800      7.554710
           332   14      21.857820     10.928910      0.000000
           333   14      21.857820     16.393370      0.000000
           334   14      21.872610     19.152670      2.781560
           335   14     -10.958885     13.675740      2.945450
           336   14       0.000000    -10.928910      0.000000
           337   14       2.732230     -8.196680      0.000000
           338   14       5.530750     -8.153790      2.704110
           339   14       2.773160    -10.923020      2.711630
           340   14       1.366110     -9.562800      1.366110
           341   14       4.098340     -6.830570      1.366110
           342   14       1.141010     -6.522410      4.156290
           343   14       4.195790     -9.488770      4.144410
           344   14       5.464460    -10.928910      0.000000
           345   14       8.196680     -8.196680      0.000000
           346   14      10.898935     -8.182080      2.945450
           347   14       8.286830    -10.842620      2.741860
           348   14       6.830570     -9.562800      1.366110
           349   14       9.562800     -6.830570      1.366110
           350   14       6.790410     -6.801960      4.189810
           351   14       9.324820     -9.386860      4.318150
           352   14       0.000000     -5.464450      0.000000
           353   14       2.732230     -2.732230      0.000000
           354   14       5.568960     -2.643040      2.746920
           355   14       2.765430     -5.420890      2.737610
           356   14       1.366110     -4.098340      1.366110
           357   14       4.098340     -1.366110      1.366110
           358   14       1.248880     -1.237840      4.039350
           359   14       4.150360     -3.940320      4.099500
           360   14       5.464460     -5.464450      0.000000
           361   14       8.196680     -2.732230      0.000000
           362   14       0.014790     -2.705150      2.781560
           363   14       8.191260     -5.441040      2.779820
           364   14       6.830570     -4.098340      1.366110
           365   14       9.562800     -1.366110      1.366110
           366   14       6.902420     -1.254850      4.044280
           367   14       9.544460     -4.012840      4.139870
           368   14       5.390420     -0.117407      5.511450
           369   14       1.839890     -8.897790      4.645860
           370   14       1.076520     -9.645110      6.767400
           371   14       3.203490     -7.222540      5.056010
           372   14       4.156970     -6.488570      7.148660
           373   14       2.170150     -0.415810      7.960270
           374   14      10.687200     -0.092910      5.471920
           375   14       7.952530     -8.188650      5.809230
           376   14       6.789520     -9.982408      7.014700
           377   14       9.474460     -6.622610      7.002300
           378   14       0.294485     -7.861010      8.067250
           379   14       5.397000     -5.352680      5.536960
           380   14       2.527040     -2.726360      5.269640
           381   14       1.555130     -4.063840      6.892220
           382   14       3.941850     -1.551620      6.783150
           383   14       3.680020     -4.373550      8.123490
           384   14      10.829768     -5.295230      5.627180
           385   14       8.189960     -2.606550      5.458530
           386   14       6.743100     -3.949710      6.897170
           387   14       9.477440     -1.467360      7.065080
           388   14       0.583228     -2.134790      8.020070
           389    5       5.054700     -2.957020      7.554710
           390   14      10.928910    -10.928910      0.000000
           391   14      13.661140     -8.196680      0.000000
           392   14      16.459660     -8.153790      2.704110
           393   14      13.702070    -10.923020      2.711630
           394   14      12.295020     -9.562800      1.366110
           395   14      15.027250     -6.830570      1.366110
           396   14      12.069920     -6.522410      4.156290
           397   14      15.124700     -9.488770      4.144410
           398   14      16.393370    -10.928910      0.000000
           399   14      19.125590     -8.196680      0.000000
           400   14      21.827845     -8.182080      2.945450
           401   14      19.215740    -10.842620      2.741860
           402   14      17.759480     -9.562800      1.366110
           403   14      20.491710     -6.830570      1.366110
           404   14      17.719320     -6.801960      4.189810
           405   14      20.253730     -9.386860      4.318150
           406   14      10.928910     -5.464450      0.000000
           407   14      13.661140     -2.732230      0.000000
           408   14      16.497870     -2.643040      2.746920
           409   14      13.694340     -5.420890      2.737610
           410   14      12.295020     -4.098340      1.366110
           411   14      15.027250     -1.366110      1.366110
           412   14      12.177790     -1.237840      4.039350
           413   14      15.079270     -3.940320      4.099500
           414   14      16.393370     -5.464450      0.000000
           415   14      19.125590     -2.732230      0.000000
           416   14      10.943700     -2.705150      2.781560
           417   14      19.120170     -5.441040      2.779820
           418   14      17.759480     -4.098340      1.366110
           419   14      20.491710     -1.366110      1.366110
           420   14      17.831330     -1.254850      4.044280
           421   14      20.473370     -4.012840      4.139870
           422   14      16.319330     -0.117407      5.511450
           423   14      12.768800     -8.897790      4.645860
           424   14      12.005430     -9.645110      6.767400
           425   14      14.132400     -7.222540      5.056010
           426   14      15.085880     -6.488570      7.148660
           427   14      13.099060     -0.415810      7.960270
           428   14      21.616110     -0.092910      5.471920
           429   14      18.881440     -8.188650      5.809230
           430   14      17.718430     -9.982408      7.014700
           431   14      20.403370     -6.622610      7.002300
           432   14      11.223395     -7.861010      8.067250
           433   14      16.325910     -5.352680      5.536960
           434   14      13.455950     -2.726360      5.269640
           435   14      12.484040     -4.063840      6.892220
           436   14      14.870760     -1.551620      6.783150
           437   14      14.608930     -4.373550      8.123490
           438   14      21.758678     -5.295230      5.627180
           439   14      19.118870     -2.606550      5.458530
           440   14      17.672010     -3.949710      6.897170
           441   14      20.406350     -1.467360      7.065080
           442   14      11.512138     -2.134790      8.020070
           443    5      15.983610     -2.957020      7.554710
           444   14     -10.928910    -10.928910      0.000000
           445   14      -8.196680     -8.196680      0.000000
           446   14      -5.398160     -8.153790      2.704110
           447   14      -8.155750    -10.923020      2.711630
           448   14      -9.562800     -9.562800      1.366110
           449   14      -6.830570     -6.830570      1.366110
           450   14      -9.787900     -6.522410      4.156290
           451   14      -6.733120     -9.488770      4.144410
           452   14      -5.464450    -10.928910      0.000000
           453   14      -2.732230     -8.196680      0.000000
           454   14      -0.029975     -8.182080      2.945450
           455   14      -2.642080    -10.842620      2.741860
           456   14      -4.098340     -9.562800      1.366110
           457   14      -1.366110     -6.830570      1.366110
           458   14      -4.138500     -6.801960      4.189810
           459   14      -1.604090     -9.386860      4.318150
           460   14     -10.928910     -5.464450      0.000000
           461   14      -8.196680     -2.732230      0.000000
           462   14      -5.359950     -2.643040      2.746920
           463   14      -8.163480     -5.420890      2.737610
           464   14      -9.562800     -4.098340      1.366110
           465   14      -6.830570     -1.366110      1.366110
           466   14      -9.680030     -1.237840      4.039350
           467   14      -6.778550     -3.940320      4.099500
           468   14      -5.464450     -5.464450      0.000000
           469   14      -2.732230     -2.732230      0.000000
           470   14     -10.914120     -2.705150      2.781560
           471   14      -2.737650     -5.441040      2.779820
           472   14      -4.098340     -4.098340      1.366110
           473   14      -1.366110     -1.366110      1.366110
           474   14      -4.026490     -1.254850      4.044280