BEGIN_CFG
 Size
    910
 AtomData:  id type       cartes_x      cartes_y      cartes_z
             1   14       4.443810      1.701160      1.563640
             2   14       3.030070      0.271721      2.882280
             3   14       4.623200      4.132250      3.649320
             4   14       2.307940      3.732260      4.025840
             5   14       6.830570      1.366110      1.366110
             6   14       9.562800      4.098340      1.366110
             7   14       7.199150      4.404630      1.723990
             8    5       6.615900      3.661110      3.535510
             9   14       9.796160      5.401310      3.583650
            10   14       5.901740      1.858870      3.584200
            11   14       9.681790      1.798310      3.875640
            12    5       7.678390      4.986710      3.789140
            13   14       8.380570      0.215831      2.722100
            14   14       2.503620      1.545610      5.098410
            15   14       1.925060      4.572630      6.642580
            16   14       3.593990      2.248410      7.280980
            17    7       3.491290      4.058210      7.011600
            18    5       4.368290      4.896420      7.808470
            19   14       0.245918      2.847700      7.095830
            20   14       0.172117      1.127050      5.589510
            21    5       5.500370      1.564020      7.751210
            22   14       8.090370      3.059620      5.006950
            23    7      10.018800      4.167500      7.520040
            24    7       6.240960      0.560990      7.100830
            25   14       5.907580      0.214851      5.375880
            26    5       7.461230      0.254183      7.946890
            27    7       4.291210      6.355850      7.676240
            28   14       8.171810      5.408030      5.751710
            29   14      10.577000      5.845330      7.348550
            30    7       5.805670      7.240200      4.445710
            31    5       7.055730      6.543160      4.498740
            32   14      10.175700      6.924580      5.311920
            33    5       5.555590      7.008470      7.702960
            34    5       8.052860      7.143480      8.095390
            35   14      11.240674      3.100550      2.699700
            36   14      13.236850      3.732260      4.025840
            37   14      13.432530      1.545610      5.098410
            38    7      12.789740      5.213510      4.989730
            39   14      12.853970      4.572630      6.642580
            40   14      14.522900      2.248410      7.280980
            41    7      14.420200      4.058210      7.011600
            42   14      11.174828      2.847700      7.095830
            43   14      11.101027      1.127050      5.589510
            44    7      12.302570      5.811290      7.829890
            45   14       9.796160     -5.527600      3.583650
            46    5       7.678390     -5.942200      3.789140
            47   14       4.098340     -1.366110      1.366110
            48   14       2.962290     -3.119790      2.807220
            49   14       4.941300     -4.372840      3.049060
            50   14       6.467350     -1.610890      1.549900
            51   14       9.721920     -3.925890      1.623160
            52   14       6.830570     -4.098340      1.366110
            53   14       9.562800     -1.366110      1.366110
            54   14       8.543800     -3.200100      3.639940
            55    5       4.368290     -6.032490      7.808470
            56    7      10.018800     -6.761410      7.520040
            57   14       1.837030     -3.964020      4.708880
            58   14       3.678810     -0.511110      5.075000
            59   14       1.894860     -1.347420      6.258980
            60   14       2.626620     -3.880080      7.686570
            61    7       2.245800     -3.071890      6.155640
            62    7       4.291210     -4.573060      7.676240
            63   14      10.925507     -1.033080      4.920220
            64   14       8.171810     -5.520880      5.751710
            65   14      10.577000     -5.083580      7.348550
            66   14       5.566370     -2.152190      5.274160
            67    7       5.805670     -3.688710      4.445710
            68   14       7.706510     -1.080630      4.603070
            69    5       7.055730     -4.385750      4.498740
            70   14      10.175700     -4.004330      5.311920
            71    5       9.250200     -2.210820      5.438290
            72   14       7.764280     -2.257950      6.805500
            73    7       8.155200     -1.017580      7.931300
            74    7       6.001510     -2.676670      6.912670
            75    5       5.555590     -3.920440      7.702960
            76    5       8.052860     -3.785430      8.095390
            77   14      11.925157     -1.253640      2.770530
            78    7      12.302570     -5.117620      7.829890
            79   14      12.765940     -3.964020      4.708880
            80   14      14.607720     -0.511110      5.075000
            81   14      12.823770     -1.347420      6.258980
            82   14      13.555530     -3.880080      7.686570
            83    7      13.174710     -3.071890      6.155640
            84   14       1.750130      1.841720      8.806850
            85    7       5.398920      4.366660      8.672290
            86   14       2.258400      3.536140     10.569200
            87    5       0.380219      2.549820     10.237800
            88    7       1.454220      0.121792      9.123170
            89    5       5.468490      2.938330      8.419710
            90    5       6.690440      5.016540      8.863690
            91    5       7.037270      2.560520      8.800210
            92    7       7.718010      3.966110      9.062540
            93   14       9.423500      4.034850      9.133770
            94    7       9.921020      2.414030      9.880710
            95    5       9.211710      1.278110      9.391280
            96    7       7.965410      1.346710      8.687450
            97    7      10.201700      4.952030     10.358400
            98    5       5.791480      1.824020      9.514860
            99    7       6.808400      6.466020      8.519500
           100    5       9.537080      6.099120     10.932500
           101    7       9.485120      6.860600      8.469210
           102    7       8.208210      5.779360     11.245700
           103   14      12.679040      1.841720      8.806850
           104   14      13.187310      3.536140     10.569200
           105    5      11.491806      4.607350     10.765500
           106    5      11.309129      2.549820     10.237800
           107    7      12.383130      0.121792      9.123170
           108    7       5.398920     -6.562250      8.672290
           109    5       0.211758     -0.345410      9.454690
           110    5       6.690440     -5.912370      8.863690
           111    7       7.718010     -6.962800      9.062540
           112   14       9.423500     -6.894060      9.133770
           113    7      10.201700     -5.976880     10.358400
           114    7       9.785350     -0.059332      9.449720
           115   14       2.716190     -0.949660      8.469240
           116   14       2.690960     -3.123620     10.571800
           117    7       2.368510     -2.693410      8.915000
           118    7      10.161500     -3.412540     10.758100
           119    5       9.207420     -1.253800      8.921020
           120    7       6.808400     -4.462890      8.519500
           121    5       9.537080     -4.829790     10.932500
           122    7       9.485120     -4.068310      8.469210
           123    5       9.863820     -3.023880      9.486280
           124    7       8.208210     -5.149550     11.245700
           125    5      11.140668     -0.345410      9.454690
           126   14      13.645100     -0.949660      8.469240
           127   14      13.619870     -3.123620     10.571800
           128    7      13.297420     -2.693410      8.915000
           129   14       0.000000      0.000000      0.000000
           130   14       2.732230      2.732230      0.000000
           131   14       1.366110      1.366110      1.366110
           132   14       4.098340      4.098340      1.366110
           133   14       1.819290      4.473740      1.414940
           134   14       0.311764      3.100550      2.699700
           135   14       5.464460      0.000000      0.000000
           136   14       8.196680      2.732230      0.000000
           137   14       0.000000      5.464460      0.000000
           138   14       2.732230      8.196680      0.000000
           139   14       1.366110      6.830570      1.366110
           140   14       4.098340      9.562800      1.366110
           141    5       0.842390      9.026840      0.792336
           142   14       0.996247      9.675270      2.770530
           143   14       2.962290      7.809120      2.807220
           144   14       4.941300      6.556070      3.049060
           145   14       6.467350      9.318020      1.549900
           146   14       9.721920      7.003020      1.623160
           147   14       5.464460      5.464460      0.000000
           148   14       8.196680      8.196680      0.000000
           149   14       6.830570      6.830570      1.366110
           150   14       9.562800      9.562800      1.366110
           151   14       8.543800      7.728810      3.639940
           152    7       1.860830      5.213510      4.989730
           153    7       1.373660      5.811290      7.829890
           154   14       1.837030      6.964890      4.708880
           155   14       3.678810     10.417800      5.075000
           156   14       1.894860      9.581490      6.258980
           157   14       2.626620      7.048830      7.686570
           158    7       2.245800      7.857020      6.155640
           159   14      10.925507      9.895830      4.920220
           160   14       5.566370      8.776720      5.274160
           161   14       7.706510      9.848280      4.603070
           162    5       9.250200      8.718090      5.438290
           163   14       7.764280      8.670960      6.805500
           164    7       8.155200      9.911330      7.931300
           165    7       6.001510      8.252240      6.912670
           166   14      10.928910      0.000000      0.000000
           167   14      13.661140      2.732230      0.000000
           168   14      12.295020      1.366110      1.366110
           169   14      15.027250      4.098340      1.366110
           170   14      15.372720      1.701160      1.563640
           171   14      13.958980      0.271721      2.882280
           172   14      12.748200      4.473740      1.414940
           173   14      15.552110      4.132250      3.649320
           174   14      16.393370      0.000000      0.000000
           175   14      19.125590      2.732230      0.000000
           176   14      17.759480      1.366110      1.366110
           177   14      20.491710      4.098340      1.366110
           178   14      18.128060      4.404630      1.723990
           179    5      17.544810      3.661110      3.535510
           180   14      20.725070      5.401310      3.583650
           181   14      16.830650      1.858870      3.584200
           182   14      20.610700      1.798310      3.875640
           183    5      18.607300      4.986710      3.789140
           184   14      19.309480      0.215831      2.722100
           185   14      10.928910      5.464460      0.000000
           186   14      13.661140      8.196680      0.000000
           187   14      12.295020      6.830570      1.366110
           188   14      15.027250      9.562800      1.366110
           189    5      11.771300      9.026840      0.792336
           190   14      11.925157      9.675270      2.770530
           191   14      13.891200      7.809120      2.807220
           192   14      15.870210      6.556070      3.049060
           193   14      17.396260      9.318020      1.549900
           194   14      20.650830      7.003020      1.623160
           195   14      16.393370      5.464460      0.000000
           196   14      19.125590      8.196680      0.000000
           197   14      17.759480      6.830570      1.366110
           198   14      20.491710      9.562800      1.366110
           199   14      19.472710      7.728810      3.639940
           200    5      15.297200      4.896420      7.808470
           201    5      16.429280      1.564020      7.751210
           202   14      19.019280      3.059620      5.006950
           203    7      20.947710      4.167500      7.520040
           204    7      17.169870      0.560990      7.100830
           205   14      16.836490      0.214851      5.375880
           206    5      18.390140      0.254183      7.946890
           207   14      12.765940      6.964890      4.708880
           208   14      14.607720     10.417800      5.075000
           209   14      12.823770      9.581490      6.258980
           210   14      13.555530      7.048830      7.686570
           211    7      13.174710      7.857020      6.155640
           212    7      15.220120      6.355850      7.676240
           213   14      21.854417      9.895830      4.920220
           214   14      19.100720      5.408030      5.751710
           215   14      21.505910      5.845330      7.348550
           216   14      16.495280      8.776720      5.274160
           217    7      16.734580      7.240200      4.445710
           218   14      18.635420      9.848280      4.603070
           219    5      17.984640      6.543160      4.498740
           220   14      21.104610      6.924580      5.311920
           221    5      20.179110      8.718090      5.438290
           222   14      18.693190      8.670960      6.805500
           223    7      19.084110      9.911330      7.931300
           224    7      16.930420      8.252240      6.912670
           225    5      16.484500      7.008470      7.702960
           226    5      18.981770      7.143480      8.095390
           227   14     -10.928910      0.000000      0.000000
           228   14      -8.196680      2.732230      0.000000
           229   14      -9.562800      1.366110      1.366110
           230   14      -6.830570      4.098340      1.366110
           231   14      -6.485100      1.701160      1.563640
           232   14      -7.898840      0.271721      2.882280
           233   14      -9.109620      4.473740      1.414940
           234   14      -6.305710      4.132250      3.649320
           235   14     -10.617146      3.100550      2.699700
           236   14      -8.620970      3.732260      4.025840
           237   14      -5.464450      0.000000      0.000000
           238   14      -2.732230      2.732230      0.000000
           239   14      -4.098340      1.366110      1.366110
           240   14      -1.366110      4.098340      1.366110
           241   14      -3.729760      4.404630      1.723990
           242    5      -4.313010      3.661110      3.535510
           243   14      -1.132750      5.401310      3.583650
           244   14      -5.027170      1.858870      3.584200
           245   14      -1.247120      1.798310      3.875640
           246    5      -3.250520      4.986710      3.789140
           247   14      -2.548340      0.215831      2.722100
           248   14     -10.928910      5.464460      0.000000
           249   14      -8.196680      8.196680      0.000000
           250   14      -9.562800      6.830570      1.366110
           251   14      -6.830570      9.562800      1.366110
           252    5     -10.086520      9.026840      0.792336
           253   14      -9.932663      9.675270      2.770530
           254   14      -7.966620      7.809120      2.807220
           255   14      -5.987610      6.556070      3.049060
           256   14      -4.461560      9.318020      1.549900
           257   14      -1.206990      7.003020      1.623160
           258   14      -5.464450      5.464460      0.000000
           259   14      -2.732230      8.196680      0.000000
           260   14      -4.098340      6.830570      1.366110
           261   14      -1.366110      9.562800      1.366110
           262   14      -2.385110      7.728810      3.639940
           263   14      -8.425290      1.545610      5.098410
           264    7      -9.068080      5.213510      4.989730
           265   14      -9.003850      4.572630      6.642580
           266   14      -7.334920      2.248410      7.280980
           267    7      -7.437620      4.058210      7.011600
           268    5      -6.560620      4.896420      7.808470
           269   14     -10.682992      2.847700      7.095830
           270   14     -10.756793      1.127050      5.589510
           271    5      -5.428540      1.564020      7.751210
           272   14      -2.838540      3.059620      5.006950
           273    7      -0.910110      4.167500      7.520040
           274    7      -4.687950      0.560990      7.100830
           275   14      -5.021330      0.214851      5.375880
           276    5      -3.467680      0.254183      7.946890
           277    7      -9.555250      5.811290      7.829890
           278   14      -9.091880      6.964890      4.708880
           279   14      -7.250100     10.417800      5.075000
           280   14      -9.034050      9.581490      6.258980
           281   14      -8.302290      7.048830      7.686570
           282    7      -8.683110      7.857020      6.155640
           283    7      -6.637700      6.355850      7.676240
           284   14      -0.003403      9.895830      4.920220
           285   14      -2.757100      5.408030      5.751710
           286   14      -0.351910      5.845330      7.348550
           287   14      -5.362540      8.776720      5.274160
           288    7      -5.123240      7.240200      4.445710
           289   14      -3.222400      9.848280      4.603070
           290    5      -3.873180      6.543160      4.498740
           291   14      -0.753210      6.924580      5.311920
           292    5      -1.678710      8.718090      5.438290
           293   14      -3.164630      8.670960      6.805500
           294    7      -2.773710      9.911330      7.931300
           295    7      -4.927400      8.252240      6.912670
           296    5      -5.373320      7.008470      7.702960
           297    5      -2.876050      7.143480      8.095390
           298   14      21.857820      0.000000      0.000000
           299   14      21.857820      5.464460      0.000000
           300   14     -10.932313      9.895830      4.920220
           301   14       0.000000     10.928910      0.000000
           302   14       2.732230     13.661140      0.000000
           303   14       1.366110     12.295020      1.366110
           304   14       4.098340     15.027250      1.366110
           305   14       4.443810     12.630070      1.563640
           306   14       3.030070     11.200631      2.882280
           307   14       1.819290     15.402650      1.414940
           308   14       4.623200     15.061160      3.649320
           309   14       0.311764     14.029460      2.699700
           310   14       2.307940     14.661170      4.025840
           311   14       5.464460     10.928910      0.000000
           312   14       8.196680     13.661140      0.000000
           313   14       6.830570     12.295020      1.366110
           314   14       9.562800     15.027250      1.366110
           315   14       7.199150     15.333540      1.723990
           316    5       6.615900     14.590020      3.535510
           317   14       9.796160     16.330220      3.583650
           318   14       5.901740     12.787780      3.584200
           319   14       9.681790     12.727220      3.875640
           320    5       7.678390     15.915620      3.789140
           321   14       8.380570     11.144741      2.722100
           322   14       0.000000     16.393370      0.000000
           323   14       2.732230     19.125590      0.000000
           324   14       1.366110     17.759480      1.366110
           325   14       4.098340     20.491710      1.366110
           326    5       0.842390     19.955750      0.792336
           327   14       0.996247     20.604180      2.770530
           328   14       2.962290     18.738030      2.807220
           329   14       4.941300     17.484980      3.049060
           330   14       6.467350     20.246930      1.549900
           331   14       9.721920     17.931930      1.623160
           332   14       5.464460     16.393370      0.000000
           333   14       8.196680     19.125590      0.000000
           334   14       6.830570     17.759480      1.366110
           335   14       9.562800     20.491710      1.366110
           336   14       8.543800     18.657720      3.639940
           337   14       2.503620     12.474520      5.098410
           338    7       1.860830     16.142420      4.989730
           339   14       1.925060     15.501540      6.642580
           340   14       3.593990     13.177320      7.280980
           341    7       3.491290     14.987120      7.011600
           342    5       4.368290     15.825330      7.808470
           343   14       0.245918     13.776610      7.095830
           344   14       0.172117     12.055960      5.589510
           345    5       5.500370     12.492930      7.751210
           346   14       8.090370     13.988530      5.006950
           347    7      10.018800     15.096410      7.520040
           348    7       6.240960     11.489900      7.100830
           349   14       5.907580     11.143761      5.375880
           350    5       7.461230     11.183093      7.946890
           351    7       1.373660     16.740200      7.829890
           352   14       1.837030     17.893800      4.708880
           353   14       3.678810     21.346710      5.075000
           354   14       1.894860     20.510400      6.258980
           355   14       2.626620     17.977740      7.686570
           356    7       2.245800     18.785930      6.155640
           357    7       4.291210     17.284760      7.676240
           358   14      10.925507     20.824740      4.920220
           359   14       8.171810     16.336940      5.751710
           360   14      10.577000     16.774240      7.348550
           361   14       5.566370     19.705630      5.274160
           362    7       5.805670     18.169110      4.445710
           363   14       7.706510     20.777190      4.603070
           364    5       7.055730     17.472070      4.498740
           365   14      10.175700     17.853490      5.311920
           366    5       9.250200     19.647000      5.438290
           367   14       7.764280     19.599870      6.805500
           368    7       8.155200     20.840240      7.931300
           369    7       6.001510     19.181150      6.912670
           370    5       5.555590     17.937380      7.702960
           371    5       8.052860     18.072390      8.095390
           372   14      10.928910     10.928910      0.000000
           373   14      13.661140     13.661140      0.000000
           374   14      12.295020     12.295020      1.366110
           375   14      15.027250     15.027250      1.366110
           376   14      15.372720     12.630070      1.563640
           377   14      13.958980     11.200631      2.882280
           378   14      12.748200     15.402650      1.414940
           379   14      15.552110     15.061160      3.649320
           380   14      11.240674     14.029460      2.699700
           381   14      13.236850     14.661170      4.025840
           382   14      16.393370     10.928910      0.000000
           383   14      19.125590     13.661140      0.000000
           384   14      17.759480     12.295020      1.366110
           385   14      20.491710     15.027250      1.366110
           386   14      18.128060     15.333540      1.723990
           387    5      17.544810     14.590020      3.535510
           388   14      20.725070     16.330220      3.583650
           389   14      16.830650     12.787780      3.584200
           390   14      20.610700     12.727220      3.875640
           391    5      18.607300     15.915620      3.789140
           392   14      19.309480     11.144741      2.722100
           393   14      10.928910     16.393370      0.000000
           394   14      13.661140     19.125590      0.000000
           395   14      12.295020     17.759480      1.366110
           396   14      15.027250     20.491710      1.366110
           397    5      11.771300     19.955750      0.792336
           398   14      11.925157     20.604180      2.770530
           399   14      13.891200     18.738030      2.807220
           400   14      15.870210     17.484980      3.049060
           401   14      17.396260     20.246930      1.549900
           402   14      20.650830     17.931930      1.623160
           403   14      16.393370     16.393370      0.000000
           404   14      19.125590     19.125590      0.000000
           405   14      17.759480     17.759480      1.366110
           406   14      20.491710     20.491710      1.366110
           407   14      19.472710     18.657720      3.639940
           408   14      13.432530     12.474520      5.098410
           409    7      12.789740     16.142420      4.989730
           410   14      12.853970     15.501540      6.642580
           411   14      14.522900     13.177320      7.280980
           412    7      14.420200     14.987120      7.011600
           413    5      15.297200     15.825330      7.808470
           414   14      11.174828     13.776610      7.095830
           415   14      11.101027     12.055960      5.589510
           416    5      16.429280     12.492930      7.751210
           417   14      19.019280     13.988530      5.006950
           418    7      20.947710     15.096410      7.520040
           419    7      17.169870     11.489900      7.100830
           420   14      16.836490     11.143761      5.375880
           421    5      18.390140     11.183093      7.946890
           422    7      12.302570     16.740200      7.829890
           423   14      12.765940     17.893800      4.708880
           424   14      14.607720     21.346710      5.075000
           425   14      12.823770     20.510400      6.258980
           426   14      13.555530     17.977740      7.686570
           427    7      13.174710     18.785930      6.155640
           428    7      15.220120     17.284760      7.676240
           429   14      21.854417     20.824740      4.920220
           430   14      19.100720     16.336940      5.751710
           431   14      21.505910     16.774240      7.348550
           432   14      16.495280     19.705630      5.274160
           433    7      16.734580     18.169110      4.445710
           434   14      18.635420     20.777190      4.603070
           435    5      17.984640     17.472070      4.498740
           436   14      21.104610     17.853490      5.311920
           437    5      20.179110     19.647000      5.438290
           438   14      18.693190     19.599870      6.805500
           439    7      19.084110     20.840240      7.931300
           440    7      16.930420     19.181150      6.912670
           441    5      16.484500     17.937380      7.702960
           442    5      18.981770     18.072390      8.095390
           443   14     -10.928910     10.928910      0.000000
           444   14      -8.196680     13.661140      0.000000
           445   14      -9.562800     12.295020      1.366110
           446   14      -6.830570     15.027250      1.366110
           447   14      -6.485100     12.630070      1.563640
           448   14      -7.898840     11.200631      2.882280
           449   14      -9.109620     15.402650      1.414940
           450   14      -6.305710     15.061160      3.649320
           451   14     -10.617146     14.029460      2.699700
           452   14      -8.620970     14.661170      4.025840
           453   14      -5.464450     10.928910      0.000000
           454   14      -2.732230     13.661140      0.000000
           455   14      -4.098340     12.295020      1.366110
           456   14      -1.366110     15.027250      1.366110
           457   14      -3.729760     15.333540      1.723990
           458    5      -4.313010     14.590020      3.535510
           459   14      -1.132750     16.330220      3.583650
           460   14      -5.027170     12.787780      3.584200
           461   14      -1.247120     12.727220      3.875640
           462    5      -3.250520     15.915620      3.789140
           463   14      -2.548340     11.144741      2.722100
           464   14     -10.928910     16.393370      0.000000
           465   14      -8.196680     19.125590      0.000000
           466   14      -9.562800     17.759480      1.366110
           467   14      -6.830570     20.491710      1.366110
           468    5     -10.086520     19.955750      0.792336
           469   14      -9.932663     20.604180      2.770530
           470   14      -7.966620     18.738030      2.807220
           471   14      -5.987610     17.484980      3.049060
           472   14      -4.461560     20.246930      1.549900
           473   14      -1.206990     17.931930      1.623160
           474   14      -5.464450     16.393370      0.000000