BEGIN_CFG
 Size
    544
 AtomData:  id type       cartes_x      cartes_y      cartes_z
             1   14       2.611150     10.792790      2.763600
             2   14       1.424530      4.133820      4.084760
             3   14       2.886290      5.537130      2.774790
             4   14       1.366110      6.830570      1.366110
             5   14       4.098340      9.562800      1.366110
             6   14       0.847927      9.658840      3.776200
             7   14       3.990210      7.190780      4.162230
             8   14       5.557640      8.237880      2.811460
             9   14       6.892970      9.602000      4.163940
            10   14       4.413390      4.071490      5.475490
            11   14       2.248290      5.213500      7.239950
            12   14       4.643930      6.853000      6.563500
            13   14       0.028255      5.370660      5.615440
            14   14       2.244810     10.483400      8.121140
            15   14       2.430160      8.555860      5.055250
            16   14       1.295330      7.288710      6.563790
            17   14       3.833030      9.759520      6.508700
            18   14       0.573362      8.703920      8.315710
            19    5       4.264870      8.482370      8.078840
            20   14       8.214810      8.102090      5.485140
            21   14       6.925120      7.115700      7.318710
            22   14       9.552890      9.373700      6.944680
            23   14       7.858040     10.465900      8.053200
            24    7       4.115380      5.263870      6.584390
            25   14      -0.265610      7.915170      2.625990
            26   14      -1.366110      9.562800      1.366110
            27   14      -4.035940      9.602000      4.163940
            28   14      -1.475630      6.584810      4.173900
            29   14      -1.440210      3.942120      6.822140
            30   14      -0.202510     10.822154      5.475880
            31   14      -2.714100      8.102090      5.485140
            32   14      -4.003790      7.115700      7.318710
            33   14      -1.376020      9.373700      6.944680
            34   14      -3.070870     10.465900      8.053200
            35   14       1.366110     12.295020      1.366110
            36   14       1.424530     15.062730      4.084760
            37   14       4.008680     12.268070      3.817840
            38   14       5.514820     13.642230      2.688320
            39   14       0.058290     13.669090      2.703630
            40   14       6.537950     15.029230      4.148400
            41   14       2.676990     13.541600      5.487460
            42   14       1.176250     12.188170      6.857570
            43   14       4.413390     15.000400      5.475490
            44   14       2.248290     16.142410      7.239950
            45   14       4.643930     17.781910      6.563500
            46   14       0.028255     16.299570      5.615440
            47   14       8.037720     13.596010      5.333320
            48   14       6.843410     12.182780      6.844050
            49   14       5.417640     11.058781      5.293590
            50   14       1.295330     18.217620      6.563790
            51    7       4.115380     16.192780      6.584390
            52   14      -2.748090     10.933262      2.710410
            53   14      -1.399340     12.308810      4.061930
            54   14      -0.545010     13.146200      8.225350
            55   14      -2.891190     13.596010      5.333320
            56   14      -4.085500     12.182780      6.844050
            57   14      -1.440210     14.871030      6.822140
            58   14       2.557910      7.429560      8.575550
            59   14       8.155800      5.255330      8.348560
            60   14       6.136470      8.871440      8.762930
            61   14      -2.773110      5.255330      8.348560
            62   14      -4.792440      8.871440      8.762930
            63   14       2.557910     18.358470      8.575550
            64   14      -2.773110     16.184240      8.348560
            65   14       0.000000      0.000000      0.000000
            66   14       2.732230      2.732230      0.000000
            67   14       1.366110      1.366110      1.366110
            68   14       4.098340      4.098340      1.366110
            69   14       4.008680      1.339160      3.817840
            70   14       5.514820      2.713320      2.688320
            71   14       5.464460      0.000000      0.000000
            72   14       8.196680      2.732230      0.000000
            73   14       0.058290      2.740180      2.703630
            74   14       8.180820      0.004352      2.710410
            75   14       6.830570      1.366110      1.366110
            76   14       9.562800      4.098340      1.366110
            77   14       8.081110      5.316260      2.723890
            78   14       6.537950      4.100320      4.148400
            79   14       9.529570      1.379900      4.061930
            80   14       0.000000      5.464460      0.000000
            81   14       2.732230      8.196680      0.000000
            82   14      10.663300      7.915170      2.625990
            83   14       5.464460      5.464460      0.000000
            84   14       8.196680      8.196680      0.000000
            85   14       6.830570      6.830570      1.366110
            86   14       9.562800      9.562800      1.366110
            87   14       9.453280      6.584810      4.173900
            88   14       2.676990      2.612690      5.487460
            89   14       1.176250      1.259260      6.857570
            90   14      10.383900      2.217290      8.225350
            91   14       8.037720      2.667100      5.333320
            92   14       6.843410      1.253870      6.844050
            93   14       9.488700      3.942120      6.822140
            94   14       5.417640      0.129871      5.293590
            95   14      10.726400     10.822154      5.475880
            96   14      10.928910      0.000000      0.000000
            97   14      13.661140      2.732230      0.000000
            98   14      13.540060     10.792790      2.763600
            99   14      12.295020      1.366110      1.366110
           100   14      15.027250      4.098340      1.366110
           101   14      12.353440      4.133820      4.084760
           102   14      14.937590      1.339160      3.817840
           103   14      13.815200      5.537130      2.774790
           104   14      16.443730      2.713320      2.688320
           105   14      16.393370      0.000000      0.000000
           106   14      19.125590      2.732230      0.000000
           107   14      10.987200      2.740180      2.703630
           108   14      19.109730      0.004352      2.710410
           109   14      17.759480      1.366110      1.366110
           110   14      20.491710      4.098340      1.366110
           111   14      19.010020      5.316260      2.723890
           112   14      17.466860      4.100320      4.148400
           113   14      20.458480      1.379900      4.061930
           114   14      10.928910      5.464460      0.000000
           115   14      13.661140      8.196680      0.000000
           116   14      12.295020      6.830570      1.366110
           117   14      15.027250      9.562800      1.366110
           118   14      11.776837      9.658840      3.776200
           119   14      14.919120      7.190780      4.162230
           120   14      21.592210      7.915170      2.625990
           121   14      16.486550      8.237880      2.811460
           122   14      16.393370      5.464460      0.000000
           123   14      19.125590      8.196680      0.000000
           124   14      17.759480      6.830570      1.366110
           125   14      20.491710      9.562800      1.366110
           126   14      17.821880      9.602000      4.163940
           127   14      20.382190      6.584810      4.173900
           128   14      13.605900      2.612690      5.487460
           129   14      12.105160      1.259260      6.857570
           130   14      15.342300      4.071490      5.475490
           131   14      13.177200      5.213500      7.239950
           132   14      21.312810      2.217290      8.225350
           133   14      15.572840      6.853000      6.563500
           134   14      10.957165      5.370660      5.615440
           135   14      18.966630      2.667100      5.333320
           136   14      17.772320      1.253870      6.844050
           137   14      20.417610      3.942120      6.822140
           138   14      16.346550      0.129871      5.293590
           139   14      13.173720     10.483400      8.121140
           140   14      13.359070      8.555860      5.055250
           141   14      12.224240      7.288710      6.563790
           142   14      14.761940      9.759520      6.508700
           143   14      11.502272      8.703920      8.315710
           144    5      15.193780      8.482370      8.078840
           145   14      21.655310     10.822154      5.475880
           146   14      19.143720      8.102090      5.485140
           147   14      17.854030      7.115700      7.318710
           148   14      20.481800      9.373700      6.944680
           149   14      18.786950     10.465900      8.053200
           150    7      15.044290      5.263870      6.584390
           151   14     -10.928910      0.000000      0.000000
           152   14      -8.196680      2.732230      0.000000
           153   14      -8.317760     10.792790      2.763600
           154   14      -9.562800      1.366110      1.366110
           155   14      -6.830570      4.098340      1.366110
           156   14      -9.504380      4.133820      4.084760
           157   14      -6.920230      1.339160      3.817840
           158   14      -8.042620      5.537130      2.774790
           159   14      -5.414090      2.713320      2.688320
           160   14      -5.464450      0.000000      0.000000
           161   14      -2.732230      2.732230      0.000000
           162   14     -10.870620      2.740180      2.703630
           163   14      -2.748090      0.004352      2.710410
           164   14      -4.098340      1.366110      1.366110
           165   14      -1.366110      4.098340      1.366110
           166   14      -2.847800      5.316260      2.723890
           167   14      -4.390960      4.100320      4.148400
           168   14      -1.399340      1.379900      4.061930
           169   14     -10.928910      5.464460      0.000000
           170   14      -8.196680      8.196680      0.000000
           171   14      -9.562800      6.830570      1.366110
           172   14      -6.830570      9.562800      1.366110
           173   14     -10.080983      9.658840      3.776200
           174   14      -6.938700      7.190780      4.162230
           175   14      -5.371270      8.237880      2.811460
           176   14      -5.464450      5.464460      0.000000
           177   14      -2.732230      8.196680      0.000000
           178   14      -4.098340      6.830570      1.366110
           179   14      -8.251920      2.612690      5.487460
           180   14      -9.752660      1.259260      6.857570
           181   14      -6.515520      4.071490      5.475490
           182   14      -8.680620      5.213500      7.239950
           183   14      -0.545010      2.217290      8.225350
           184   14      -6.284980      6.853000      6.563500
           185   14     -10.900655      5.370660      5.615440
           186   14      -2.891190      2.667100      5.333320
           187   14      -4.085500      1.253870      6.844050
           188   14      -5.511270      0.129871      5.293590
           189   14      -8.684100     10.483400      8.121140
           190   14      -8.498750      8.555860      5.055250
           191   14      -9.633580      7.288710      6.563790
           192   14      -7.095880      9.759520      6.508700
           193   14     -10.355548      8.703920      8.315710
           194    5      -6.664040      8.482370      8.078840
           195    7      -6.813530      5.263870      6.584390
           196   14      21.857820      0.000000      0.000000
           197   14      21.916110      2.740180      2.703630
           198   14      21.857820      5.464460      0.000000
           199   14      21.886075      5.370660      5.615440
           200   14       0.000000     10.928910      0.000000
           201   14       2.732230     13.661140      0.000000
           202   14       2.611150     21.721700      2.763600
           203   14       4.098340     15.027250      1.366110
           204   14       2.886290     16.466040      2.774790
           205   14       5.464460     10.928910      0.000000
           206   14       8.196680     13.661140      0.000000
           207   14       8.180820     10.933262      2.710410
           208   14       6.830570     12.295020      1.366110
           209   14       9.562800     15.027250      1.366110
           210   14       8.081110     16.245170      2.723890
           211   14       9.529570     12.308810      4.061930
           212   14       0.000000     16.393370      0.000000
           213   14       2.732230     19.125590      0.000000
           214   14       1.366110     17.759480      1.366110
           215   14       4.098340     20.491710      1.366110
           216   14       0.847927     20.587750      3.776200
           217   14       3.990210     18.119690      4.162230
           218   14      10.663300     18.844080      2.625990
           219   14       5.557640     19.166790      2.811460
           220   14       5.464460     16.393370      0.000000
           221   14       8.196680     19.125590      0.000000
           222   14       6.830570     17.759480      1.366110
           223   14       9.562800     20.491710      1.366110
           224   14       6.892970     20.530910      4.163940
           225   14       9.453280     17.513720      4.173900
           226   14      10.383900     13.146200      8.225350
           227   14       9.488700     14.871030      6.822140
           228   14       2.244810     21.412310      8.121140
           229   14       2.430160     19.484770      5.055250
           230   14       3.833030     20.688430      6.508700
           231   14       0.573362     19.632830      8.315710
           232    5       4.264870     19.411280      8.078840
           233   14      10.726400     21.751064      5.475880
           234   14       8.214810     19.031000      5.485140
           235   14       6.925120     18.044610      7.318710
           236   14       9.552890     20.302610      6.944680
           237   14       7.858040     21.394810      8.053200
           238   14      10.928910     10.928910      0.000000
           239   14      13.661140     13.661140      0.000000
           240   14      13.540060     21.721700      2.763600
           241   14      12.295020     12.295020      1.366110
           242   14      15.027250     15.027250      1.366110
           243   14      12.353440     15.062730      4.084760
           244   14      14.937590     12.268070      3.817840
           245   14      13.815200     16.466040      2.774790
           246   14      16.443730     13.642230      2.688320
           247   14      16.393370     10.928910      0.000000
           248   14      19.125590     13.661140      0.000000
           249   14      10.987200     13.669090      2.703630
           250   14      19.109730     10.933262      2.710410
           251   14      17.759480     12.295020      1.366110
           252   14      20.491710     15.027250      1.366110
           253   14      19.010020     16.245170      2.723890
           254   14      17.466860     15.029230      4.148400
           255   14      20.458480     12.308810      4.061930
           256   14      10.928910     16.393370      0.000000
           257   14      13.661140     19.125590      0.000000
           258   14      12.295020     17.759480      1.366110
           259   14      15.027250     20.491710      1.366110
           260   14      11.776837     20.587750      3.776200
           261   14      14.919120     18.119690      4.162230
           262   14      21.592210     18.844080      2.625990
           263   14      16.486550     19.166790      2.811460
           264   14      16.393370     16.393370      0.000000
           265   14      19.125590     19.125590      0.000000
           266   14      17.759480     17.759480      1.366110
           267   14      20.491710     20.491710      1.366110
           268   14      17.821880     20.530910      4.163940
           269   14      20.382190     17.513720      4.173900
           270   14      13.605900     13.541600      5.487460
           271   14      12.105160     12.188170      6.857570
           272   14      15.342300     15.000400      5.475490
           273   14      13.177200     16.142410      7.239950
           274   14      21.312810     13.146200      8.225350
           275   14      15.572840     17.781910      6.563500
           276   14      10.957165     16.299570      5.615440
           277   14      18.966630     13.596010      5.333320
           278   14      17.772320     12.182780      6.844050
           279   14      20.417610     14.871030      6.822140
           280   14      16.346550     11.058781      5.293590
           281   14      13.173720     21.412310      8.121140
           282   14      13.359070     19.484770      5.055250
           283   14      12.224240     18.217620      6.563790
           284   14      14.761940     20.688430      6.508700
           285   14      11.502272     19.632830      8.315710
           286    5      15.193780     19.411280      8.078840
           287   14      21.655310     21.751064      5.475880
           288   14      19.143720     19.031000      5.485140
           289   14      17.854030     18.044610      7.318710
           290   14      20.481800     20.302610      6.944680
           291   14      18.786950     21.394810      8.053200
           292    7      15.044290     16.192780      6.584390
           293   14     -10.928910     10.928910      0.000000
           294   14      -8.196680     13.661140      0.000000
           295   14      -8.317760     21.721700      2.763600
           296   14      -9.562800     12.295020      1.366110
           297   14      -6.830570     15.027250      1.366110
           298   14      -9.504380     15.062730      4.084760
           299   14      -6.920230     12.268070      3.817840
           300   14      -8.042620     16.466040      2.774790
           301   14      -5.414090     13.642230      2.688320
           302   14      -5.464450     10.928910      0.000000
           303   14      -2.732230     13.661140      0.000000
           304   14     -10.870620     13.669090      2.703630
           305   14      -4.098340     12.295020      1.366110
           306   14      -1.366110     15.027250      1.366110
           307   14      -2.847800     16.245170      2.723890
           308   14      -4.390960     15.029230      4.148400
           309   14     -10.928910     16.393370      0.000000
           310   14      -8.196680     19.125590      0.000000
           311   14      -9.562800     17.759480      1.366110
           312   14      -6.830570     20.491710      1.366110
           313   14     -10.080983     20.587750      3.776200
           314   14      -6.938700     18.119690      4.162230
           315   14      -0.265610     18.844080      2.625990
           316   14      -5.371270     19.166790      2.811460
           317   14      -5.464450     16.393370      0.000000
           318   14      -2.732230     19.125590      0.000000
           319   14      -4.098340     17.759480      1.366110
           320   14      -1.366110     20.491710      1.366110
           321   14      -4.035940     20.530910      4.163940
           322   14      -1.475630     17.513720      4.173900
           323   14      -8.251920     13.541600      5.487460
           324   14      -9.752660     12.188170      6.857570
           325   14      -6.515520     15.000400      5.475490
           326   14      -8.680620     16.142410      7.239950
           327   14      -6.284980     17.781910      6.563500
           328   14     -10.900655     16.299570      5.615440
           329   14      -5.511270     11.058781      5.293590
           330   14      -8.684100     21.412310      8.121140
           331   14      -8.498750     19.484770      5.055250
           332   14      -9.633580     18.217620      6.563790
           333   14      -7.095880     20.688430      6.508700
           334   14     -10.355548     19.632830      8.315710
           335    5      -6.664040     19.411280      8.078840
           336   14      -0.202510     21.751064      5.475880
           337   14      -2.714100     19.031000      5.485140
           338   14      -4.003790     18.044610      7.318710
           339   14      -1.376020     20.302610      6.944680
           340   14      -3.070870     21.394810      8.053200
           341    7      -6.813530     16.192780      6.584390
           342   14      21.857820     10.928910      0.000000
           343   14      21.916110     13.669090      2.703630
           344   14      21.857820     16.393370      0.000000
           345   14      21.886075     16.299570      5.615440
           346   14       0.000000    -10.928910      0.000000
           347   14       2.732230     -8.196680      0.000000
           348   14       2.611150     -0.136120      2.763600
           349   14       1.366110     -9.562800      1.366110
           350   14       4.098340     -6.830570      1.366110
           351   14       1.424530     -6.795090      4.084760
           352   14       4.008680     -9.589750      3.817840
           353   14       2.886290     -5.391780      2.774790
           354   14       5.514820     -8.215590      2.688320
           355   14       5.464460    -10.928910      0.000000
           356   14       8.196680     -8.196680      0.000000
           357   14       0.058290     -8.188730      2.703630
           358   14       8.180820    -10.924558      2.710410
           359   14       6.830570     -9.562800      1.366110
           360   14       9.562800     -6.830570      1.366110
           361   14       8.081110     -5.612650      2.723890
           362   14       6.537950     -6.828590      4.148400
           363   14       9.529570     -9.549010      4.061930
           364   14       0.000000     -5.464450      0.000000
           365   14       2.732230     -2.732230      0.000000
           366   14       1.366110     -4.098340      1.366110
           367   14       4.098340     -1.366110      1.366110
           368   14       0.847927     -1.270070      3.776200
           369   14       3.990210     -3.738130      4.162230
           370   14      10.663300     -3.013740      2.625990
           371   14       5.557640     -2.691030      2.811460
           372   14       5.464460     -5.464450      0.000000
           373   14       8.196680     -2.732230      0.000000
           374   14       6.830570     -4.098340      1.366110
           375   14       9.562800     -1.366110      1.366110
           376   14       6.892970     -1.326910      4.163940
           377   14       9.453280     -4.344100      4.173900
           378   14       2.676990     -8.316220      5.487460
           379   14       1.176250     -9.669650      6.857570
           380   14       4.413390     -6.857420      5.475490
           381   14       2.248290     -5.715410      7.239950
           382   14      10.383900     -8.711620      8.225350
           383   14       4.643930     -4.075910      6.563500
           384   14       0.028255     -5.558250      5.615440
           385   14       8.037720     -8.261810      5.333320
           386   14       6.843410     -9.675040      6.844050
           387   14       9.488700     -6.986790      6.822140
           388   14       5.417640    -10.799039      5.293590
           389   14       2.244810     -0.445510      8.121140
           390   14       2.430160     -2.373050      5.055250
           391   14       1.295330     -3.640200      6.563790
           392   14       3.833030     -1.169390      6.508700
           393   14       0.573362     -2.224990      8.315710
           394    5       4.264870     -2.446540      8.078840
           395   14      10.726400     -0.106756      5.475880
           396   14       8.214810     -2.826820      5.485140
           397   14       6.925120     -3.813210      7.318710
           398   14       9.552890     -1.555210      6.944680
           399   14       7.858040     -0.463010      8.053200
           400    7       4.115380     -5.665040      6.584390
           401   14      10.928910    -10.928910      0.000000
           402   14      13.661140     -8.196680      0.000000
           403   14      13.540060     -0.136120      2.763600
           404   14      12.295020     -9.562800      1.366110
           405   14      15.027250     -6.830570      1.366110
           406   14      12.353440     -6.795090      4.084760
           407   14      14.937590     -9.589750      3.817840
           408   14      13.815200     -5.391780      2.774790
           409   14      16.443730     -8.215590      2.688320
           410   14      16.393370    -10.928910      0.000000
           411   14      19.125590     -8.196680      0.000000
           412   14      10.987200     -8.188730      2.703630
           413   14      19.109730    -10.924558      2.710410
           414   14      17.759480     -9.562800      1.366110
           415   14      20.491710     -6.830570      1.366110
           416   14      19.010020     -5.612650      2.723890
           417   14      17.466860     -6.828590      4.148400
           418   14      20.458480     -9.549010      4.061930
           419   14      10.928910     -5.464450      0.000000
           420   14      13.661140     -2.732230      0.000000
           421   14      12.295020     -4.098340      1.366110
           422   14      15.027250     -1.366110      1.366110
           423   14      11.776837     -1.270070      3.776200
           424   14      14.919120     -3.738130      4.162230
           425   14      21.592210     -3.013740      2.625990
           426   14      16.486550     -2.691030      2.811460
           427   14      16.393370     -5.464450      0.000000
           428   14      19.125590     -2.732230      0.000000
           429   14      17.759480     -4.098340      1.366110
           430   14      20.491710     -1.366110      1.366110
           431   14      17.821880     -1.326910      4.163940
           432   14      20.382190     -4.344100      4.173900
           433   14      13.605900     -8.316220      5.487460
           434   14      12.105160     -9.669650      6.857570
           435   14      15.342300     -6.857420      5.475490
           436   14      13.177200     -5.715410      7.239950
           437   14      21.312810     -8.711620      8.225350
           438   14      15.572840     -4.075910      6.563500
           439   14      10.957165     -5.558250      5.615440
           440   14      18.966630     -8.261810      5.333320
           441   14      17.772320     -9.675040      6.844050
           442   14      20.417610     -6.986790      6.822140
           443   14      16.346550    -10.799039      5.293590
           444   14      13.173720     -0.445510      8.121140
           445   14      13.359070     -2.373050      5.055250
           446   14      12.224240     -3.640200      6.563790
           447   14      14.761940     -1.169390      6.508700
           448   14      11.502272     -2.224990      8.315710
           449    5      15.193780     -2.446540      8.078840
           450   14      21.655310     -0.106756      5.475880
           451   14      19.143720     -2.826820      5.485140
           452   14      17.854030     -3.813210      7.318710
           453   14      20.481800     -1.555210      6.944680
           454   14      18.786950     -0.463010      8.053200
           455    7      15.044290     -5.665040      6.584390
           456   14     -10.928910    -10.928910      0.000000
           457   14      -8.196680     -8.196680      0.000000
           458   14      -8.317760     -0.136120      2.763600
           459   14      -9.562800     -9.562800      1.366110
           460   14      -6.830570     -6.830570      1.366110
           461   14      -9.504380     -6.795090      4.084760
           462   14      -6.920230     -9.589750      3.817840
           463   14      -8.042620     -5.391780      2.774790
           464   14      -5.414090     -8.215590      2.688320
           465   14      -5.464450    -10.928910      0.000000
           466   14      -2.732230     -8.196680      0.000000
           467   14     -10.870620     -8.188730      2.703630
           468   14      -2.748090    -10.924558      2.710410
           469   14      -4.098340     -9.562800      1.366110
           470   14      -1.366110     -6.830570      1.366110
           471   14      -2.847800     -5.612650      2.723890
           472   14      -4.390960     -6.828590      4.148400
           473   14      -1.399340     -9.549010      4.061930
           474   14     -10.928910     -5.464450      0.000000