BEGIN_CFG
 Size
    625
 AtomData:  id type       cartes_x      cartes_y      cartes_z
             1   14       0.920857      3.876360      3.922880
             2   14       2.381220      5.019850      2.513240
             3   14       7.907810      5.052320      2.693020
             4   14       2.732230      8.196680      0.000000
             5   14       1.366110      6.830570      1.366110
             6   14       4.098340      9.562800      1.366110
             7    5       1.950050     10.135800      1.197510
             8   14       5.211230      7.896580      2.695730
             9   14       0.687316      8.993530      2.382050
            10   14       3.795530      6.401580      3.907250
            11   14       7.792710     10.502700      2.561490
            12   14       6.830570      6.830570      1.366110
            13   14       6.653850      9.189570      4.088660
            14   14       2.606140      2.070590      5.869000
            15   14       4.254200      2.776260      7.623700
            16    7       4.274630      4.674880      7.452140
            17   14       0.957378      4.300410      6.906370
            18    7       1.557050      3.419910      5.472720
            19    5       5.389060      4.504240      6.562040
            20   14       7.392430      3.728670      6.675520
            21   14       9.127450      5.222890      6.799640
            22   14       5.808480      5.701780      4.998650
            23   14       5.634650     10.692200      5.546430
            24   14       1.701330      7.585180      4.219390
            25   14       0.366286      6.495280      5.836190
            26   14       2.545600      9.741820      4.844090
            27    7       0.761597     10.307400      7.744330
            28   14       1.601700      7.102710      7.878270
            29   14       2.271600      9.293300      7.932590
            30    5       4.042860      9.701490      6.122380
            31   14      10.783000     10.205200      4.387140
            32   14       7.510100      7.556360      5.510500
            33   14       7.323900      7.109700      7.806730
            34   14       9.878970      8.459050      5.816390
            35    5       8.111150      5.650300      4.815370
            36    7       8.867150      6.408980      8.223260
            37   14       9.955660      9.525990      7.917850
            38    7       4.014200      9.572870      7.530590
            39    5       5.454400      9.892460      7.625090
            40    7       8.205980     10.126700      8.220490
            41    5       6.974760      4.130640      4.291490
            42    7      11.690507     10.307400      7.744330
            43   14      -0.957750      5.555760      3.945060
            44   14      -1.801460      5.222890      6.799640
            45   14      -0.145910     10.205200      4.387140
            46   14      -3.418810      7.556360      5.510500
            47   14      -1.049940      8.459050      5.816390
            48    7      -2.061760      6.408980      8.223260
            49   14      -0.973250      9.525990      7.917850
            50    7      -2.722930     10.126700      8.220490
            51   14       1.366110     12.295020      1.366110
            52   14       4.492490     12.674210      1.416560
            53   14       0.920857     14.805270      3.922880
            54   14       3.104160     11.164920      2.840250
            55   14       5.464460     10.928910      0.000000
            56   14       6.830570     12.295020      1.366110
            57   14       5.663010     13.880270      3.312320
            58   14       9.215470     11.858015      3.751020
            59   14       4.442830     12.462990      4.532400
            60   14       2.606140     12.999500      5.869000
            61   14       4.254200     13.705170      7.623700
            62    7       4.274630     15.603790      7.452140
            63   14       0.957378     15.229320      6.906370
            64    7       1.557050     14.348820      5.472720
            65   14       1.183000     11.139021      6.240940
            66    5       5.389060     15.433150      6.562040
            67   14       7.483860     13.244340      4.753420
            68   14       7.392430     14.657580      6.675520
            69   14       5.808480     16.630690      4.998650
            70   14       7.117720     11.207200      7.281890
            71    5       6.974760     15.059550      4.291490
            72   14      -0.289610     13.253300      2.622460
            73   14      -1.713440     11.858015      3.751020
            74   14      -3.811190     11.207200      7.281890
            75   14       2.828830      5.200790      8.398090
            76   14      10.285300      7.314790      8.767050
            77   14       6.503700      2.229570      8.358190
            78   14       6.903450      9.169780      8.976200
            79   14      -0.643610      7.314790      8.767050
            80   14       2.828830     16.129700      8.398090
            81   14       6.503700     13.158480      8.358190
            82   14       0.000000      0.000000      0.000000
            83   14       2.732230      2.732230      0.000000
            84   14       1.366110      1.366110      1.366110
            85   14       4.098340      4.098340      1.366110
            86   14       4.492490      1.745300      1.416560
            87   14       3.104160      0.236010      2.840250
            88   14      10.639300      2.324390      2.622460
            89   14       5.464460      0.000000      0.000000
            90   14       8.196680      2.732230      0.000000
            91   14       6.830570      1.366110      1.366110
            92   14       9.562800      4.098340      1.366110
            93   14       5.663010      2.951360      3.312320
            94   14       9.215470      0.929105      3.751020
            95   14       0.000000      5.464460      0.000000
            96   14       9.637580      6.856560      1.631840
            97   14       5.464460      5.464460      0.000000
            98   14       8.196680      8.196680      0.000000
            99   14       9.562800      9.562800      1.366110
           100   14       9.971160      5.555760      3.945060
           101   14       4.442830      1.534080      4.532400
           102   14       1.183000      0.210111      6.240940
           103   14       7.483860      2.315430      4.753420
           104   14       7.117720      0.278290      7.281890
           105   14      10.928910      0.000000      0.000000
           106   14      13.661140      2.732230      0.000000
           107   14      12.295020      1.366110      1.366110
           108   14      15.027250      4.098340      1.366110
           109   14      15.421400      1.745300      1.416560
           110   14      11.849767      3.876360      3.922880
           111   14      13.310130      5.019850      2.513240
           112   14      14.033070      0.236010      2.840250
           113   14      21.568210      2.324390      2.622460
           114   14      16.393370      0.000000      0.000000
           115   14      19.125590      2.732230      0.000000
           116   14      17.759480      1.366110      1.366110
           117   14      20.491710      4.098340      1.366110
           118   14      16.591920      2.951360      3.312320
           119   14      18.836720      5.052320      2.693020
           120   14      20.144380      0.929105      3.751020
           121   14      10.928910      5.464460      0.000000
           122   14      13.661140      8.196680      0.000000
           123   14      12.295020      6.830570      1.366110
           124   14      15.027250      9.562800      1.366110
           125    5      12.878960     10.135800      1.197510
           126   14      16.140140      7.896580      2.695730
           127   14      11.616226      8.993530      2.382050
           128   14      14.724440      6.401580      3.907250
           129   14      20.566490      6.856560      1.631840
           130   14      18.721620     10.502700      2.561490
           131   14      16.393370      5.464460      0.000000
           132   14      19.125590      8.196680      0.000000
           133   14      17.759480      6.830570      1.366110
           134   14      20.491710      9.562800      1.366110
           135   14      20.900070      5.555760      3.945060
           136   14      17.582760      9.189570      4.088660
           137   14      15.371740      1.534080      4.532400
           138   14      13.535050      2.070590      5.869000
           139   14      15.183110      2.776260      7.623700
           140    7      15.203540      4.674880      7.452140
           141   14      11.886288      4.300410      6.906370
           142    7      12.485960      3.419910      5.472720
           143   14      12.111910      0.210111      6.240940
           144    5      16.317970      4.504240      6.562040
           145   14      18.412770      2.315430      4.753420
           146   14      18.321340      3.728670      6.675520
           147   14      20.056360      5.222890      6.799640
           148   14      16.737390      5.701780      4.998650
           149   14      16.563560     10.692200      5.546430
           150   14      12.630240      7.585180      4.219390
           151   14      11.295196      6.495280      5.836190
           152   14      13.474510      9.741820      4.844090
           153   14      12.530610      7.102710      7.878270
           154   14      13.200510      9.293300      7.932590
           155    5      14.971770      9.701490      6.122380
           156   14      21.711910     10.205200      4.387140
           157   14      18.439010      7.556360      5.510500
           158   14      18.252810      7.109700      7.806730
           159   14      20.807880      8.459050      5.816390
           160   14      18.046630      0.278290      7.281890
           161    5      19.040060      5.650300      4.815370
           162    7      19.796060      6.408980      8.223260
           163   14      20.884570      9.525990      7.917850
           164    7      14.943110      9.572870      7.530590
           165    5      16.383310      9.892460      7.625090
           166    7      19.134890     10.126700      8.220490
           167    5      17.903670      4.130640      4.291490
           168   14     -10.928910      0.000000      0.000000
           169   14      -8.196680      2.732230      0.000000
           170   14      -9.562800      1.366110      1.366110
           171   14      -6.830570      4.098340      1.366110
           172   14      -6.436420      1.745300      1.416560
           173   14     -10.008053      3.876360      3.922880
           174   14      -8.547690      5.019850      2.513240
           175   14      -7.824750      0.236010      2.840250
           176   14      -0.289610      2.324390      2.622460
           177   14      -5.464450      0.000000      0.000000
           178   14      -2.732230      2.732230      0.000000
           179   14      -4.098340      1.366110      1.366110
           180   14      -1.366110      4.098340      1.366110
           181   14      -5.265900      2.951360      3.312320
           182   14      -3.021100      5.052320      2.693020
           183   14      -1.713440      0.929105      3.751020
           184   14     -10.928910      5.464460      0.000000
           185   14      -8.196680      8.196680      0.000000
           186   14      -9.562800      6.830570      1.366110
           187   14      -6.830570      9.562800      1.366110
           188    5      -8.978860     10.135800      1.197510
           189   14      -5.717680      7.896580      2.695730
           190   14     -10.241594      8.993530      2.382050
           191   14      -7.133380      6.401580      3.907250
           192   14      -1.291330      6.856560      1.631840
           193   14      -3.136200     10.502700      2.561490
           194   14      -5.464450      5.464460      0.000000
           195   14      -2.732230      8.196680      0.000000
           196   14      -4.098340      6.830570      1.366110
           197   14      -1.366110      9.562800      1.366110
           198   14      -4.275060      9.189570      4.088660
           199   14      -6.486080      1.534080      4.532400
           200   14      -8.322770      2.070590      5.869000
           201   14      -6.674710      2.776260      7.623700
           202    7      -6.654280      4.674880      7.452140
           203   14      -9.971532      4.300410      6.906370
           204    7      -9.371860      3.419910      5.472720
           205   14      -9.745910      0.210111      6.240940
           206    5      -5.539850      4.504240      6.562040
           207   14      -3.445050      2.315430      4.753420
           208   14      -3.536480      3.728670      6.675520
           209   14      -5.120430      5.701780      4.998650
           210   14      -5.294260     10.692200      5.546430
           211   14      -9.227580      7.585180      4.219390
           212   14     -10.562624      6.495280      5.836190
           213   14      -8.383310      9.741820      4.844090
           214    7     -10.167313     10.307400      7.744330
           215   14      -9.327210      7.102710      7.878270
           216   14      -8.657310      9.293300      7.932590
           217    5      -6.886050      9.701490      6.122380
           218   14      -3.605010      7.109700      7.806730
           219   14      -3.811190      0.278290      7.281890
           220    5      -2.817760      5.650300      4.815370
           221    7      -6.914710      9.572870      7.530590
           222    5      -5.474510      9.892460      7.625090
           223    5      -3.954150      4.130640      4.291490
           224   14      21.857820      0.000000      0.000000
           225   14      21.857820      5.464460      0.000000
           226   14       0.000000     10.928910      0.000000
           227   14       2.732230     13.661140      0.000000
           228   14       4.098340     15.027250      1.366110
           229   14       2.381220     15.948760      2.513240
           230   14      10.639300     13.253300      2.622460
           231   14       8.196680     13.661140      0.000000
           232   14       9.562800     15.027250      1.366110
           233   14       7.907810     15.981230      2.693020
           234   14       0.000000     16.393370      0.000000
           235   14       2.732230     19.125590      0.000000
           236   14       1.366110     17.759480      1.366110
           237   14       4.098340     20.491710      1.366110
           238    5       1.950050     21.064710      1.197510
           239   14       5.211230     18.825490      2.695730
           240   14       0.687316     19.922440      2.382050
           241   14       3.795530     17.330490      3.907250
           242   14       9.637580     17.785470      1.631840
           243   14       7.792710     21.431610      2.561490
           244   14       5.464460     16.393370      0.000000
           245   14       8.196680     19.125590      0.000000
           246   14       6.830570     17.759480      1.366110
           247   14       9.562800     20.491710      1.366110
           248   14       9.971160     16.484670      3.945060
           249   14       6.653850     20.118480      4.088660
           250   14       9.127450     16.151800      6.799640
           251   14       5.634650     21.621110      5.546430
           252   14       1.701330     18.514090      4.219390
           253   14       0.366286     17.424190      5.836190
           254   14       2.545600     20.670730      4.844090
           255    7       0.761597     21.236310      7.744330
           256   14       1.601700     18.031620      7.878270
           257   14       2.271600     20.222210      7.932590
           258    5       4.042860     20.630400      6.122380
           259   14      10.783000     21.134110      4.387140
           260   14       7.510100     18.485270      5.510500
           261   14       7.323900     18.038610      7.806730
           262   14       9.878970     19.387960      5.816390
           263    5       8.111150     16.579210      4.815370
           264    7       8.867150     17.337890      8.223260
           265   14       9.955660     20.454900      7.917850
           266    7       4.014200     20.501780      7.530590
           267    5       5.454400     20.821370      7.625090
           268    7       8.205980     21.055610      8.220490
           269   14      10.928910     10.928910      0.000000
           270   14      13.661140     13.661140      0.000000
           271   14      12.295020     12.295020      1.366110
           272   14      15.027250     15.027250      1.366110
           273   14      15.421400     12.674210      1.416560
           274   14      11.849767     14.805270      3.922880
           275   14      13.310130     15.948760      2.513240
           276   14      14.033070     11.164920      2.840250
           277   14      21.568210     13.253300      2.622460
           278   14      16.393370     10.928910      0.000000
           279   14      19.125590     13.661140      0.000000
           280   14      17.759480     12.295020      1.366110
           281   14      20.491710     15.027250      1.366110
           282   14      16.591920     13.880270      3.312320
           283   14      18.836720     15.981230      2.693020
           284   14      20.144380     11.858015      3.751020
           285   14      10.928910     16.393370      0.000000
           286   14      13.661140     19.125590      0.000000
           287   14      12.295020     17.759480      1.366110
           288   14      15.027250     20.491710      1.366110
           289    5      12.878960     21.064710      1.197510
           290   14      16.140140     18.825490      2.695730
           291   14      11.616226     19.922440      2.382050
           292   14      14.724440     17.330490      3.907250
           293   14      20.566490     17.785470      1.631840
           294   14      18.721620     21.431610      2.561490
           295   14      16.393370     16.393370      0.000000
           296   14      19.125590     19.125590      0.000000
           297   14      17.759480     17.759480      1.366110
           298   14      20.491710     20.491710      1.366110
           299   14      20.900070     16.484670      3.945060
           300   14      17.582760     20.118480      4.088660
           301   14      15.371740     12.462990      4.532400
           302   14      13.535050     12.999500      5.869000
           303   14      15.183110     13.705170      7.623700
           304    7      15.203540     15.603790      7.452140
           305   14      11.886288     15.229320      6.906370
           306    7      12.485960     14.348820      5.472720
           307   14      12.111910     11.139021      6.240940
           308    5      16.317970     15.433150      6.562040
           309   14      18.412770     13.244340      4.753420
           310   14      18.321340     14.657580      6.675520
           311   14      20.056360     16.151800      6.799640
           312   14      16.737390     16.630690      4.998650
           313   14      16.563560     21.621110      5.546430
           314   14      12.630240     18.514090      4.219390
           315   14      11.295196     17.424190      5.836190
           316   14      13.474510     20.670730      4.844090
           317    7      11.690507     21.236310      7.744330
           318   14      12.530610     18.031620      7.878270
           319   14      13.200510     20.222210      7.932590
           320    5      14.971770     20.630400      6.122380
           321   14      21.711910     21.134110      4.387140
           322   14      18.439010     18.485270      5.510500
           323   14      18.252810     18.038610      7.806730
           324   14      20.807880     19.387960      5.816390
           325   14      18.046630     11.207200      7.281890
           326    5      19.040060     16.579210      4.815370
           327    7      19.796060     17.337890      8.223260
           328   14      20.884570     20.454900      7.917850
           329    7      14.943110     20.501780      7.530590
           330    5      16.383310     20.821370      7.625090
           331    7      19.134890     21.055610      8.220490
           332    5      17.903670     15.059550      4.291490
           333   14     -10.928910     10.928910      0.000000
           334   14      -8.196680     13.661140      0.000000
           335   14      -9.562800     12.295020      1.366110
           336   14      -6.830570     15.027250      1.366110
           337   14      -6.436420     12.674210      1.416560
           338   14     -10.008053     14.805270      3.922880
           339   14      -8.547690     15.948760      2.513240
           340   14      -7.824750     11.164920      2.840250
           341   14      -5.464450     10.928910      0.000000
           342   14      -2.732230     13.661140      0.000000
           343   14      -4.098340     12.295020      1.366110
           344   14      -1.366110     15.027250      1.366110
           345   14      -5.265900     13.880270      3.312320
           346   14      -3.021100     15.981230      2.693020
           347   14     -10.928910     16.393370      0.000000
           348   14      -8.196680     19.125590      0.000000
           349   14      -9.562800     17.759480      1.366110
           350   14      -6.830570     20.491710      1.366110
           351    5      -8.978860     21.064710      1.197510
           352   14      -5.717680     18.825490      2.695730
           353   14     -10.241594     19.922440      2.382050
           354   14      -7.133380     17.330490      3.907250
           355   14      -1.291330     17.785470      1.631840
           356   14      -3.136200     21.431610      2.561490
           357   14      -5.464450     16.393370      0.000000
           358   14      -2.732230     19.125590      0.000000
           359   14      -4.098340     17.759480      1.366110
           360   14      -1.366110     20.491710      1.366110
           361   14      -0.957750     16.484670      3.945060
           362   14      -4.275060     20.118480      4.088660
           363   14      -6.486080     12.462990      4.532400
           364   14      -8.322770     12.999500      5.869000
           365   14      -6.674710     13.705170      7.623700
           366    7      -6.654280     15.603790      7.452140
           367   14      -9.971532     15.229320      6.906370
           368    7      -9.371860     14.348820      5.472720
           369   14      -9.745910     11.139021      6.240940
           370    5      -5.539850     15.433150      6.562040
           371   14      -3.445050     13.244340      4.753420
           372   14      -3.536480     14.657580      6.675520
           373   14      -1.801460     16.151800      6.799640
           374   14      -5.120430     16.630690      4.998650
           375   14      -5.294260     21.621110      5.546430
           376   14      -9.227580     18.514090      4.219390
           377   14     -10.562624     17.424190      5.836190
           378   14      -8.383310     20.670730      4.844090
           379    7     -10.167313     21.236310      7.744330
           380   14      -9.327210     18.031620      7.878270
           381   14      -8.657310     20.222210      7.932590
           382    5      -6.886050     20.630400      6.122380
           383   14      -0.145910     21.134110      4.387140
           384   14      -3.418810     18.485270      5.510500
           385   14      -3.605010     18.038610      7.806730
           386   14      -1.049940     19.387960      5.816390
           387    5      -2.817760     16.579210      4.815370
           388    7      -2.061760     17.337890      8.223260
           389   14      -0.973250     20.454900      7.917850
           390    7      -6.914710     20.501780      7.530590
           391    5      -5.474510     20.821370      7.625090
           392    7      -2.722930     21.055610      8.220490
           393    5      -3.954150     15.059550      4.291490
           394   14      21.857820     10.928910      0.000000
           395   14      21.857820     16.393370      0.000000
           396   14       0.000000    -10.928910      0.000000
           397   14       2.732230     -8.196680      0.000000
           398   14       1.366110     -9.562800      1.366110
           399   14       4.098340     -6.830570      1.366110
           400   14       4.492490     -9.183610      1.416560
           401   14       0.920857     -7.052550      3.922880
           402   14       2.381220     -5.909060      2.513240
           403   14       3.104160    -10.692900      2.840250
           404   14      10.639300     -8.604520      2.622460
           405   14       5.464460    -10.928910      0.000000
           406   14       8.196680     -8.196680      0.000000
           407   14       6.830570     -9.562800      1.366110
           408   14       9.562800     -6.830570      1.366110
           409   14       5.663010     -7.977550      3.312320
           410   14       7.907810     -5.876590      2.693020
           411   14       9.215470     -9.999805      3.751020
           412   14       0.000000     -5.464450      0.000000
           413   14       2.732230     -2.732230      0.000000
           414   14       1.366110     -4.098340      1.366110
           415   14       4.098340     -1.366110      1.366110
           416    5       1.950050     -0.793110      1.197510
           417   14       5.211230     -3.032330      2.695730
           418   14       0.687316     -1.935380      2.382050
           419   14       3.795530     -4.527330      3.907250
           420   14       9.637580     -4.072350      1.631840
           421   14       7.792710     -0.426210      2.561490
           422   14       5.464460     -5.464450      0.000000
           423   14       8.196680     -2.732230      0.000000
           424   14       6.830570     -4.098340      1.366110
           425   14       9.562800     -1.366110      1.366110
           426   14       9.971160     -5.373150      3.945060
           427   14       6.653850     -1.739340      4.088660
           428   14       4.442830     -9.394830      4.532400
           429   14       2.606140     -8.858320      5.869000
           430   14       4.254200     -8.152650      7.623700
           431    7       4.274630     -6.254030      7.452140
           432   14       0.957378     -6.628500      6.906370
           433    7       1.557050     -7.509000      5.472720
           434   14       1.183000    -10.718799      6.240940
           435    5       5.389060     -6.424670      6.562040
           436   14       7.483860     -8.613480      4.753420
           437   14       7.392430     -7.200240      6.675520
           438   14       9.127450     -5.706020      6.799640
           439   14       5.808480     -5.227130      4.998650
           440   14       5.634650     -0.236710      5.546430
           441   14       1.701330     -3.343730      4.219390
           442   14       0.366286     -4.433630      5.836190
           443   14       2.545600     -1.187090      4.844090
           444    7       0.761597     -0.621510      7.744330
           445   14       1.601700     -3.826200      7.878270
           446   14       2.271600     -1.635610      7.932590
           447    5       4.042860     -1.227420      6.122380
           448   14      10.783000     -0.723710      4.387140
           449   14       7.510100     -3.372550      5.510500
           450   14       7.323900     -3.819210      7.806730
           451   14       9.878970     -2.469860      5.816390
           452   14       7.117720    -10.650620      7.281890
           453    5       8.111150     -5.278610      4.815370
           454    7       8.867150     -4.519930      8.223260
           455   14       9.955660     -1.402920      7.917850
           456    7       4.014200     -1.356040      7.530590
           457    5       5.454400     -1.036450      7.625090
           458    7       8.205980     -0.802210      8.220490
           459    5       6.974760     -6.798270      4.291490
           460   14      10.928910    -10.928910      0.000000
           461   14      13.661140     -8.196680      0.000000
           462   14      12.295020     -9.562800      1.366110
           463   14      15.027250     -6.830570      1.366110
           464   14      15.421400     -9.183610      1.416560
           465   14      11.849767     -7.052550      3.922880
           466   14      13.310130     -5.909060      2.513240
           467   14      14.033070    -10.692900      2.840250
           468   14      21.568210     -8.604520      2.622460
           469   14      16.393370    -10.928910      0.000000
           470   14      19.125590     -8.196680      0.000000
           471   14      17.759480     -9.562800      1.366110
           472   14      20.491710     -6.830570      1.366110
           473   14      16.591920     -7.977550      3.312320
           474   14      18.836720     -5.876590      2.693020