BEGIN_CFG
 Size
    712
 AtomData:  id type       cartes_x      cartes_y      cartes_z
             1   14       5.129280      2.909110      3.910690
             2   14       7.171700      4.438500      1.506280
             3    5       6.606340      4.310360      3.523010
             4   14       4.098340      9.562800      1.366110
             5   14       0.665369      8.913970      2.262130
             6   14       4.870260      7.552610      2.921260
             7   14       2.877460      6.061730      3.268450
             8    5       6.582280      6.118950      3.535270
             9   14       9.723810      6.958710      1.592150
            10   14       7.960870     10.657800      2.817420
            11   14       6.830570      6.830570      1.366110
            12   14       9.562800      9.562800      1.366110
            13   14       8.414780      7.027650      3.497100
            14   14       4.458140      1.969480      6.078310
            15   14       0.288924      4.853180      7.508840
            16    7       0.727008      4.909140      5.751780
            17    5       5.031030      2.456630      7.975900
            18   14       4.947280      5.294180      4.503930
            19   14       8.391480      4.941310      4.571320
            20    5       5.338560      5.294100      6.586590
            21   14       7.459960      2.798000      5.056130
            22   14       6.471540      3.617800      7.111950
            23    7       4.278770      5.879550      7.530070
            24   14       1.639650      6.399350      5.260810
            25   14       2.151760     10.095000      4.841150
            26   14       2.823160      7.013120      7.309410
            27   14       0.537762      8.404520      4.715660
            28   14       1.438620      9.149360      7.229680
            29   14       7.243310      6.144550      6.424360
            30   14       5.464450      9.153470      4.816220
            31    7       5.571110      9.796840      6.610300
            32   14       9.901940      9.678310      5.898900
            33   14       7.967850      9.025510      4.619790
            34    5       6.203660      9.211590      7.848000
            35   14       9.298880      6.355330      7.916560
            36    5       6.654400      8.291160      6.305320
            37   14      10.028900      9.184880      8.226710
            38   14      11.594279      8.913970      2.262130
            39   14      11.217834      4.853180      7.508840
            40    7      11.655918      4.909140      5.751780
            41   14      12.568560      6.399350      5.260810
            42   14      13.080670     10.095000      4.841150
            43   14      13.752070      7.013120      7.309410
            44   14      11.466672      8.404520      4.715660
            45   14      12.367530      9.149360      7.229680
            46   14      -1.026970      9.678310      5.898900
            47   14      -0.900010      9.184880      8.226710
            48   14       4.440080     12.619840      1.690750
            49   14       2.857980     10.956171      2.712600
            50   14       5.129280     13.838020      3.910690
            51   14       6.830570     12.295020      1.366110
            52   14       9.150730     12.596030      3.647170
            53    5       6.606340     15.239270      3.523010
            54   14       0.851829     14.239940      4.909820
            55   14       4.458140     12.898390      6.078310
            56   14       1.868340     12.252260      5.767930
            57   14       1.839820     11.443305      8.221320
            58    5       5.031030     13.385540      7.975900
            59    5       5.203320     11.170912      7.015090
            60   14       4.947280     16.223090      4.503930
            61   14       8.391480     15.870220      4.571320
            62   14      10.605600     13.406370      7.759060
            63    5       5.338560     16.223010      6.586590
            64   14       7.459960     13.726910      5.056130
            65   14       6.471540     14.546710      7.111950
            66   14      10.324200     12.276930      5.708030
            67    7       5.548530     11.898307      8.285620
            68    7       4.278770     16.808460      7.530070
            69   14      12.797250     12.252260      5.767930
            70   14      12.768730     11.443305      8.221320
            71   14      -0.323310     13.406370      7.759060
            72   14      -0.604710     12.276930      5.708030
            73    5       3.818800      4.800300      8.436930
            74   14       2.131810      5.549440      9.061030
            75    7       4.381440      3.535530      8.813430
            76   14       4.419860      3.955230     10.578300
            77   14       8.570260      2.738730      9.088440
            78    7       7.041700      3.777040      8.875880
            79    5       6.346190      4.214390      9.964020
            80    7       6.779260      9.407290      9.168690
            81    7       9.038570      7.888650      9.039200
            82    5       7.907300      8.560720      9.178300
            83   14      13.060720      5.549440      9.061030
            84    5       3.818800     15.729210      8.436930
            85    7       4.381440     14.464440      8.813430
            86    7       0.346139     12.182170      8.847220
            87   14       4.419860     14.884140     10.578300
            88   14       8.570260     13.667640      9.088440
            89    7       7.041700     14.705950      8.875880
            90    7       8.368390     11.959470      9.525840
            91    5       6.346190     15.143300      9.964020
            92   14      10.077000     11.214452      9.701280
            93   14       6.703120     11.172673      9.444130
            94    7      11.275049     12.182170      8.847220
            95   14      -0.851910     11.214452      9.701280
            96   14       0.000000      0.000000      0.000000
            97   14       2.732230      2.732230      0.000000
            98   14       1.366110      1.366110      1.366110
            99   14       4.098340      4.098340      1.366110
           100   14       4.440080      1.690930      1.690750
           101   14       2.857980      0.027261      2.712600
           102   14       1.793900      4.482350      1.493660
           103   14       0.033389      2.873360      2.781860
           104   14       5.464460      0.000000      0.000000
           105   14       8.196680      2.732230      0.000000
           106   14       6.830570      1.366110      1.366110
           107   14       9.562800      4.098340      1.366110
           108   14       9.150730      1.667120      3.647170
           109   14       0.000000      5.464460      0.000000
           110   14       2.732230      8.196680      0.000000
           111   14       1.366110      6.830570      1.366110
           112    5       1.922710      9.994420      1.008460
           113   14       5.464460      5.464460      0.000000
           114   14       8.196680      8.196680      0.000000
           115   14       0.851829      3.311030      4.909820
           116   14       1.868340      1.323350      5.767930
           117   14       1.839820      0.514395      8.221320
           118    5       5.203320      0.242002      7.015090
           119   14      10.605600      2.477460      7.759060
           120   14      10.324200      1.348020      5.708030
           121    7       5.548530      0.969397      8.285620
           122   14      10.928910      0.000000      0.000000
           123   14      13.661140      2.732230      0.000000
           124   14      12.295020      1.366110      1.366110
           125   14      15.027250      4.098340      1.366110
           126   14      15.368990      1.690930      1.690750
           127   14      13.786890      0.027261      2.712600
           128   14      12.722810      4.482350      1.493660
           129   14      10.962299      2.873360      2.781860
           130   14      16.058190      2.909110      3.910690
           131   14      16.393370      0.000000      0.000000
           132   14      19.125590      2.732230      0.000000
           133   14      17.759480      1.366110      1.366110
           134   14      20.491710      4.098340      1.366110
           135   14      18.100610      4.438500      1.506280
           136   14      20.079640      1.667120      3.647170
           137    5      17.535250      4.310360      3.523010
           138   14      10.928910      5.464460      0.000000
           139   14      13.661140      8.196680      0.000000
           140   14      12.295020      6.830570      1.366110
           141   14      15.027250      9.562800      1.366110
           142    5      12.851620      9.994420      1.008460
           143   14      15.799170      7.552610      2.921260
           144   14      13.806370      6.061730      3.268450
           145    5      17.511190      6.118950      3.535270
           146   14      20.652720      6.958710      1.592150
           147   14      18.889780     10.657800      2.817420
           148   14      16.393370      5.464460      0.000000
           149   14      19.125590      8.196680      0.000000
           150   14      17.759480      6.830570      1.366110
           151   14      20.491710      9.562800      1.366110
           152   14      19.343690      7.027650      3.497100
           153   14      11.780739      3.311030      4.909820
           154   14      15.387050      1.969480      6.078310
           155   14      12.797250      1.323350      5.767930
           156   14      12.768730      0.514395      8.221320
           157    5      15.959940      2.456630      7.975900
           158    5      16.132230      0.242002      7.015090
           159   14      15.876190      5.294180      4.503930
           160   14      19.320390      4.941310      4.571320
           161   14      21.534510      2.477460      7.759060
           162    5      16.267470      5.294100      6.586590
           163   14      18.388870      2.798000      5.056130
           164   14      17.400450      3.617800      7.111950
           165   14      21.253110      1.348020      5.708030
           166    7      16.477440      0.969397      8.285620
           167    7      15.207680      5.879550      7.530070
           168   14      18.172220      6.144550      6.424360
           169   14      16.393360      9.153470      4.816220
           170    7      16.500020      9.796840      6.610300
           171   14      20.830850      9.678310      5.898900
           172   14      18.896760      9.025510      4.619790
           173    5      17.132570      9.211590      7.848000
           174   14      20.227790      6.355330      7.916560
           175    5      17.583310      8.291160      6.305320
           176   14      20.957810      9.184880      8.226710
           177   14     -10.928910      0.000000      0.000000
           178   14      -8.196680      2.732230      0.000000
           179   14      -9.562800      1.366110      1.366110
           180   14      -6.830570      4.098340      1.366110
           181   14      -6.488830      1.690930      1.690750
           182   14      -8.070930      0.027261      2.712600
           183   14      -9.135010      4.482350      1.493660
           184   14     -10.895521      2.873360      2.781860
           185   14      -5.799630      2.909110      3.910690
           186   14      -5.464450      0.000000      0.000000
           187   14      -2.732230      2.732230      0.000000
           188   14      -4.098340      1.366110      1.366110
           189   14      -1.366110      4.098340      1.366110
           190   14      -3.757210      4.438500      1.506280
           191   14      -1.778180      1.667120      3.647170
           192    5      -4.322570      4.310360      3.523010
           193   14     -10.928910      5.464460      0.000000
           194   14      -8.196680      8.196680      0.000000
           195   14      -9.562800      6.830570      1.366110
           196   14      -6.830570      9.562800      1.366110
           197    5      -9.006200      9.994420      1.008460
           198   14     -10.263541      8.913970      2.262130
           199   14      -6.058650      7.552610      2.921260
           200   14      -8.051450      6.061730      3.268450
           201    5      -4.346630      6.118950      3.535270
           202   14      -1.205100      6.958710      1.592150
           203   14      -2.968040     10.657800      2.817420
           204   14      -5.464450      5.464460      0.000000
           205   14      -2.732230      8.196680      0.000000
           206   14      -4.098340      6.830570      1.366110
           207   14      -1.366110      9.562800      1.366110
           208   14      -2.514130      7.027650      3.497100
           209   14     -10.077081      3.311030      4.909820
           210   14      -6.470770      1.969480      6.078310
           211   14     -10.639986      4.853180      7.508840
           212    7     -10.201902      4.909140      5.751780
           213   14      -9.060570      1.323350      5.767930
           214   14      -9.089090      0.514395      8.221320
           215    5      -5.897880      2.456630      7.975900
           216    5      -5.725590      0.242002      7.015090
           217   14      -5.981630      5.294180      4.503930
           218   14      -2.537430      4.941310      4.571320
           219   14      -0.323310      2.477460      7.759060
           220    5      -5.590350      5.294100      6.586590
           221   14      -3.468950      2.798000      5.056130
           222   14      -4.457370      3.617800      7.111950
           223   14      -0.604710      1.348020      5.708030
           224    7      -5.380380      0.969397      8.285620
           225    7      -6.650140      5.879550      7.530070
           226   14      -9.289260      6.399350      5.260810
           227   14      -8.777150     10.095000      4.841150
           228   14      -8.105750      7.013120      7.309410
           229   14     -10.391148      8.404520      4.715660
           230   14      -9.490290      9.149360      7.229680
           231   14      -3.685600      6.144550      6.424360
           232   14      -5.464460      9.153470      4.816220
           233    7      -5.357800      9.796840      6.610300
           234   14      -2.961060      9.025510      4.619790
           235    5      -4.725250      9.211590      7.848000
           236   14      -1.630030      6.355330      7.916560
           237    5      -4.274510      8.291160      6.305320
           238   14      21.857820      0.000000      0.000000
           239   14      21.891209      2.873360      2.781860
           240   14      21.857820      5.464460      0.000000
           241   14       0.000000     10.928910      0.000000
           242   14       2.732230     13.661140      0.000000
           243   14       1.366110     12.295020      1.366110
           244   14       4.098340     15.027250      1.366110
           245   14       1.793900     15.411260      1.493660
           246   14       0.033389     13.802270      2.781860
           247   14       5.464460     10.928910      0.000000
           248   14       8.196680     13.661140      0.000000
           249   14       9.562800     15.027250      1.366110
           250   14       7.171700     15.367410      1.506280
           251   14       0.000000     16.393370      0.000000
           252   14       2.732230     19.125590      0.000000
           253   14       1.366110     17.759480      1.366110
           254   14       4.098340     20.491710      1.366110
           255    5       1.922710     20.923330      1.008460
           256   14       0.665369     19.842880      2.262130
           257   14       4.870260     18.481520      2.921260
           258   14       2.877460     16.990640      3.268450
           259    5       6.582280     17.047860      3.535270
           260   14       9.723810     17.887620      1.592150
           261   14       7.960870     21.586710      2.817420
           262   14       5.464460     16.393370      0.000000
           263   14       8.196680     19.125590      0.000000
           264   14       6.830570     17.759480      1.366110
           265   14       9.562800     20.491710      1.366110
           266   14       8.414780     17.956560      3.497100
           267   14       0.288924     15.782090      7.508840
           268    7       0.727008     15.838050      5.751780
           269   14       1.639650     17.328260      5.260810
           270   14       2.151760     21.023910      4.841150
           271   14       2.823160     17.942030      7.309410
           272   14       0.537762     19.333430      4.715660
           273   14       1.438620     20.078270      7.229680
           274   14       7.243310     17.073460      6.424360
           275   14       5.464450     20.082380      4.816220
           276    7       5.571110     20.725750      6.610300
           277   14       9.901940     20.607220      5.898900
           278   14       7.967850     19.954420      4.619790
           279    5       6.203660     20.140500      7.848000
           280   14       9.298880     17.284240      7.916560
           281    5       6.654400     19.220070      6.305320
           282   14      10.028900     20.113790      8.226710
           283   14      10.928910     10.928910      0.000000
           284   14      13.661140     13.661140      0.000000
           285   14      12.295020     12.295020      1.366110
           286   14      15.027250     15.027250      1.366110
           287   14      15.368990     12.619840      1.690750
           288   14      13.786890     10.956171      2.712600
           289   14      12.722810     15.411260      1.493660
           290   14      10.962299     13.802270      2.781860
           291   14      16.058190     13.838020      3.910690
           292   14      16.393370     10.928910      0.000000
           293   14      19.125590     13.661140      0.000000
           294   14      17.759480     12.295020      1.366110
           295   14      20.491710     15.027250      1.366110
           296   14      18.100610     15.367410      1.506280
           297   14      20.079640     12.596030      3.647170
           298    5      17.535250     15.239270      3.523010
           299   14      10.928910     16.393370      0.000000
           300   14      13.661140     19.125590      0.000000
           301   14      12.295020     17.759480      1.366110
           302   14      15.027250     20.491710      1.366110
           303    5      12.851620     20.923330      1.008460
           304   14      11.594279     19.842880      2.262130
           305   14      15.799170     18.481520      2.921260
           306   14      13.806370     16.990640      3.268450
           307    5      17.511190     17.047860      3.535270
           308   14      20.652720     17.887620      1.592150
           309   14      18.889780     21.586710      2.817420
           310   14      16.393370     16.393370      0.000000
           311   14      19.125590     19.125590      0.000000
           312   14      17.759480     17.759480      1.366110
           313   14      20.491710     20.491710      1.366110
           314   14      19.343690     17.956560      3.497100
           315   14      11.780739     14.239940      4.909820
           316   14      15.387050     12.898390      6.078310
           317   14      11.217834     15.782090      7.508840
           318    7      11.655918     15.838050      5.751780
           319    5      15.959940     13.385540      7.975900
           320    5      16.132230     11.170912      7.015090
           321   14      15.876190     16.223090      4.503930
           322   14      19.320390     15.870220      4.571320
           323   14      21.534510     13.406370      7.759060
           324    5      16.267470     16.223010      6.586590
           325   14      18.388870     13.726910      5.056130
           326   14      17.400450     14.546710      7.111950
           327   14      21.253110     12.276930      5.708030
           328    7      16.477440     11.898307      8.285620
           329    7      15.207680     16.808460      7.530070
           330   14      12.568560     17.328260      5.260810
           331   14      13.080670     21.023910      4.841150
           332   14      13.752070     17.942030      7.309410
           333   14      11.466672     19.333430      4.715660
           334   14      12.367530     20.078270      7.229680
           335   14      18.172220     17.073460      6.424360
           336   14      16.393360     20.082380      4.816220
           337    7      16.500020     20.725750      6.610300
           338   14      20.830850     20.607220      5.898900
           339   14      18.896760     19.954420      4.619790
           340    5      17.132570     20.140500      7.848000
           341   14      20.227790     17.284240      7.916560
           342    5      17.583310     19.220070      6.305320
           343   14      20.957810     20.113790      8.226710
           344   14     -10.928910     10.928910      0.000000
           345   14      -8.196680     13.661140      0.000000
           346   14      -9.562800     12.295020      1.366110
           347   14      -6.830570     15.027250      1.366110
           348   14      -6.488830     12.619840      1.690750
           349   14      -8.070930     10.956171      2.712600
           350   14      -9.135010     15.411260      1.493660
           351   14     -10.895521     13.802270      2.781860
           352   14      -5.799630     13.838020      3.910690
           353   14      -5.464450     10.928910      0.000000
           354   14      -2.732230     13.661140      0.000000
           355   14      -4.098340     12.295020      1.366110
           356   14      -1.366110     15.027250      1.366110
           357   14      -3.757210     15.367410      1.506280
           358   14      -1.778180     12.596030      3.647170
           359    5      -4.322570     15.239270      3.523010
           360   14     -10.928910     16.393370      0.000000
           361   14      -8.196680     19.125590      0.000000
           362   14      -9.562800     17.759480      1.366110
           363   14      -6.830570     20.491710      1.366110
           364    5      -9.006200     20.923330      1.008460
           365   14     -10.263541     19.842880      2.262130
           366   14      -6.058650     18.481520      2.921260
           367   14      -8.051450     16.990640      3.268450
           368    5      -4.346630     17.047860      3.535270
           369   14      -1.205100     17.887620      1.592150
           370   14      -2.968040     21.586710      2.817420
           371   14      -5.464450     16.393370      0.000000
           372   14      -2.732230     19.125590      0.000000
           373   14      -4.098340     17.759480      1.366110
           374   14      -1.366110     20.491710      1.366110
           375   14      -2.514130     17.956560      3.497100
           376   14     -10.077081     14.239940      4.909820
           377   14      -6.470770     12.898390      6.078310
           378   14     -10.639986     15.782090      7.508840
           379    7     -10.201902     15.838050      5.751780
           380   14      -9.060570     12.252260      5.767930
           381   14      -9.089090     11.443305      8.221320
           382    5      -5.897880     13.385540      7.975900
           383    5      -5.725590     11.170912      7.015090
           384   14      -5.981630     16.223090      4.503930
           385   14      -2.537430     15.870220      4.571320
           386    5      -5.590350     16.223010      6.586590
           387   14      -3.468950     13.726910      5.056130
           388   14      -4.457370     14.546710      7.111950
           389    7      -5.380380     11.898307      8.285620
           390    7      -6.650140     16.808460      7.530070
           391   14      -9.289260     17.328260      5.260810
           392   14      -8.777150     21.023910      4.841150
           393   14      -8.105750     17.942030      7.309410
           394   14     -10.391148     19.333430      4.715660
           395   14      -9.490290     20.078270      7.229680
           396   14      -3.685600     17.073460      6.424360
           397   14      -5.464460     20.082380      4.816220
           398    7      -5.357800     20.725750      6.610300
           399   14      -1.026970     20.607220      5.898900
           400   14      -2.961060     19.954420      4.619790
           401    5      -4.725250     20.140500      7.848000
           402   14      -1.630030     17.284240      7.916560
           403    5      -4.274510     19.220070      6.305320
           404   14      -0.900010     20.113790      8.226710
           405   14      21.857820     10.928910      0.000000
           406   14      21.891209     13.802270      2.781860
           407   14      21.857820     16.393370      0.000000
           408   14       0.000000    -10.928910      0.000000
           409   14       2.732230     -8.196680      0.000000
           410   14       1.366110     -9.562800      1.366110
           411   14       4.098340     -6.830570      1.366110
           412   14       4.440080     -9.237980      1.690750
           413   14       2.857980    -10.901649      2.712600
           414   14       1.793900     -6.446560      1.493660
           415   14       0.033389     -8.055550      2.781860
           416   14       5.129280     -8.019800      3.910690
           417   14       5.464460    -10.928910      0.000000
           418   14       8.196680     -8.196680      0.000000
           419   14       6.830570     -9.562800      1.366110
           420   14       9.562800     -6.830570      1.366110
           421   14       7.171700     -6.490410      1.506280
           422   14       9.150730     -9.261790      3.647170
           423    5       6.606340     -6.618550      3.523010
           424   14       0.000000     -5.464450      0.000000
           425   14       2.732230     -2.732230      0.000000
           426   14       1.366110     -4.098340      1.366110
           427   14       4.098340     -1.366110      1.366110
           428    5       1.922710     -0.934490      1.008460
           429   14       0.665369     -2.014940      2.262130
           430   14       4.870260     -3.376300      2.921260
           431   14       2.877460     -4.867180      3.268450
           432    5       6.582280     -4.809960      3.535270
           433   14       9.723810     -3.970200      1.592150
           434   14       7.960870     -0.271110      2.817420
           435   14       5.464460     -5.464450      0.000000
           436   14       8.196680     -2.732230      0.000000
           437   14       6.830570     -4.098340      1.366110
           438   14       9.562800     -1.366110      1.366110
           439   14       8.414780     -3.901260      3.497100
           440   14       0.851829     -7.617880      4.909820
           441   14       4.458140     -8.959430      6.078310
           442   14       0.288924     -6.075730      7.508840
           443    7       0.727008     -6.019770      5.751780
           444   14       1.868340     -9.605560      5.767930
           445   14       1.839820    -10.414515      8.221320
           446    5       5.031030     -8.472280      7.975900
           447    5       5.203320    -10.686908      7.015090
           448   14       4.947280     -5.634730      4.503930
           449   14       8.391480     -5.987600      4.571320
           450   14      10.605600     -8.451450      7.759060
           451    5       5.338560     -5.634810      6.586590
           452   14       7.459960     -8.130910      5.056130
           453   14       6.471540     -7.311110      7.111950
           454   14      10.324200     -9.580890      5.708030
           455    7       5.548530     -9.959513      8.285620
           456    7       4.278770     -5.049360      7.530070
           457   14       1.639650     -4.529560      5.260810
           458   14       2.151760     -0.833910      4.841150
           459   14       2.823160     -3.915790      7.309410
           460   14       0.537762     -2.524390      4.715660
           461   14       1.438620     -1.779550      7.229680
           462   14       7.243310     -4.784360      6.424360
           463   14       5.464450     -1.775440      4.816220
           464    7       5.571110     -1.132070      6.610300
           465   14       9.901940     -1.250600      5.898900
           466   14       7.967850     -1.903400      4.619790
           467    5       6.203660     -1.717320      7.848000
           468   14       9.298880     -4.573580      7.916560
           469    5       6.654400     -2.637750      6.305320
           470   14      10.028900     -1.744030      8.226710
           471   14      10.928910    -10.928910      0.000000
           472   14      13.661140     -8.196680      0.000000
           473   14      12.295020     -9.562800      1.366110
           474   14      15.027250     -6.830570      1.366110