BEGIN_CFG
 Size
    2242
 AtomData:  id type       cartes_x      cartes_y      cartes_z
             1   14       4.789570      0.888926      5.464650
             2   14       5.175490      3.320990      4.939310
             3   14       8.241900      2.271130      5.060600
             4    5       7.160710      3.926950      4.969680
             5   14       8.336870      5.364840      6.179210
             6   14       3.150010      2.852870      6.783390
             7    7       3.878230      1.231250      7.114960
             8   14       0.780168      3.487400      6.947410
             9   14       3.426060      5.197140      6.788790
            10   14       2.774590      0.090656      7.880610
            11   14       0.420863      0.696772      7.912000
            12    7       5.023770      5.825670      7.425010
            13    5       5.288100      7.317420      7.516770
            14    7       2.263700      5.824970      7.999020
            15    7       0.228729      2.389160      8.219520
            16    5       0.937550      0.389355     10.767700
            17    7       0.959877      1.842550     10.960700
            18    7       4.901860      4.769380      9.792090
            19    5       1.877500      2.641340     11.538800
            20    5       4.198930      0.309078     10.379100
            21    7       3.806250      0.291778     11.799700
            22    5       1.714290      5.247890     11.913800
            23    5       5.369450      4.806890      8.400650
            24    7       0.180384      0.072548      9.557530
            25    7       2.315920      3.878700     12.061000
            26    7       5.420290      0.996010     10.042600
            27    5       7.764000      4.674660      8.011450
            28   14      10.760300      2.528990      9.803880
            29    7      10.719700      4.222880     10.152200
            30    7       6.472790      3.919140      8.017230
            31    5       6.145730      1.733430     10.985900
            32   14       5.933660      4.507870     11.270600
            33    5       6.126460      0.586987      8.887710
            34    7       6.914730      3.028000     10.467800
            35    5       6.869010      2.859200      8.922260
            36    5       8.419230      1.040440      9.211030
            37    7       9.105940      1.978300     10.150100
            38    7       7.238670      1.538980      8.537260
            39    5       8.388640      2.887360     10.985200
            40    5      10.374900      4.410000     11.565400
            41    5       9.991030      5.105050      9.210880
            42    7       8.468190      5.052920      9.257930
            43    7       4.511780      8.073810      8.455120
            44    5       3.994640      5.819390     10.178700
            45    5       3.832880      7.322930      9.495920
            46    5       2.652720      6.187060      9.276140
            47    5       4.170730      7.048930     11.161400
            48    5       2.638380      6.307380     11.101000
            49    7       6.803680      6.071360     11.239000
            50    7      10.428000      6.345810      8.571930
            51    5       9.417850      7.472200      8.805380
            52    5       7.957590      6.196510     10.231000
            53    5       8.811040      8.338820     11.168800
            54    7       8.559660      7.441930     10.010100
            55    5       6.526340      7.328920     11.933900
            56    5       3.700350      4.069160     12.268000
            57    7       4.918300      3.776420     12.736900
            58    5       4.767050      0.953141     12.762500
            59    7       0.291770      5.343150     12.298900
            60    7       9.134660      3.582270     12.030900
            61    7       6.148560      1.286750     12.310600
            62    5       7.080350      1.533200     13.242900
            63    5       9.002400      2.964790     13.245300
            64    5       2.274700      7.763250     12.120100
            65    7       5.124130      7.647120     12.186100
            66    5       4.402060      8.529090     13.165500
            67    7       7.736090      8.177640     12.215500
            68   14      11.349773      0.696772      7.912000
            69    7      11.157639      2.389160      8.219520
            70    5      11.866460      0.389355     10.767700
            71    7      11.888787      1.842550     10.960700
            72    5      12.806410      2.641340     11.538800
            73    5      12.643200      5.247890     11.913800
            74    7      11.109294      0.072548      9.557530
            75    7      13.244830      3.878700     12.061000
            76    7      11.220680      5.343150     12.298900
            77    5      10.982142      6.765380     12.714000
            78   14      -0.168610      2.528990      9.803880
            79    7      -0.209210      4.222880     10.152200
            80    5      -0.554010      4.410000     11.565400
            81   14       1.682800     -1.513190      6.406270
            82   14       8.623250     -0.293010      5.337630
            83   14       8.242440     -3.254910      6.335730
            84    5       5.288100     -3.611490      7.516770
            85    7       7.841260     -0.650710      6.909770
            86    5       6.592740     -1.347220      7.163340
            87    7       6.356530     -2.785510      6.756860
            88    7       9.089070     -2.532120      7.743310
            89    5       8.703890     -1.182350      7.944800
            90    7       4.901860     -6.159530      9.792090
            91   14       5.933660     -6.421040     11.270600
            92    7       4.511780     -2.855100      8.455120
            93    7       3.634140     -0.590810      9.337580
            94    5       3.994640     -5.109520     10.178700
            95    5       4.662070     -1.426300      8.684610
            96    5       3.832880     -3.605980      9.495920
            97    5       2.652720     -4.741850      9.276140
            98    5       4.170730     -3.879980     11.161400
            99    5       2.638380     -4.621530     11.101000
           100    5       0.339751     -1.789720     11.636000
           101    7       1.374080     -0.679810     11.569000
           102    7       5.809300     -0.671710      8.227960
           103    7       8.833620     -0.377810      9.140620
           104    5       9.978420     -0.733110      9.857980
           105    7      10.005900     -1.661320     10.999100
           106    7       6.803680     -4.857550     11.239000
           107    5       9.417850     -3.456710      8.805380
           108    5       7.957590     -4.732400     10.231000
           109    5       8.811040     -2.590090     11.168800
           110    7       8.559660     -3.486980     10.010100
           111    5       6.526340     -3.599990     11.933900
           112    5       2.737340     -0.738210     12.064200
           113    5       2.274700     -3.165660     12.120100
           114    7       5.124130     -3.281790     12.186100
           115    7       3.043710     -2.069930     12.752000
           116    7       0.774019     -3.062040     12.166300
           117    5       4.402060     -2.399820     13.165500
           118    7       7.736090     -2.751270     12.215500
           119    5      11.268661     -1.789720     11.636000
           120    7      12.302990     -0.679810     11.569000
           121    5      13.666250     -0.738210     12.064200
           122    7      11.702929     -3.062040     12.166300
           123    5      10.982142     -4.163530     12.714000
           124    5      -0.950490     -0.733110      9.857980
           125    7      -0.923010     -1.661320     10.999100
           126    7       4.450630      1.730930     14.059300
           127    5       4.196480      1.241890     15.402400
           128    5       5.093480      3.030290     14.070300
           129    5       4.544640      4.465160     15.870100
           130    7       0.538170      0.577370     15.726200
           131    7       5.629440      3.669100     15.318100
           132    7       8.301880      1.887890     13.795900
           133    5       8.459290      1.366970     15.232200
           134    5      10.015900      0.909168     16.066400
           135    7       4.510580      5.969880     15.682500
           136    7      10.450300      7.019510     14.126800
           137    5       6.232830      8.611010     14.755700
           138    7       7.291190      7.737760     14.661100
           139    5       9.834280      6.246010     15.129700
           140    5       8.090960      8.441110     13.587300
           141    5       7.643430      6.863660     15.840100
           142    7       8.869810      6.022010     16.053200
           143    5       1.974780      0.512279     16.118800
           144    7       2.982030      1.554440     16.138200
           145    5       3.114010      2.688860     17.117000
           146    7       3.478890      4.096260     16.720700
           147    5       1.176780      3.075790     18.084700
           148    5       2.378310      4.988110     17.030000
           149    7       1.125960      4.459360     17.429100
           150    7       2.414730      2.478390     18.525900
           151    5       5.432840      0.353017     17.385900
           152    5       6.854240      3.357760     16.144700
           153    7      10.738000      2.611030     17.781000
           154    5      10.664600      4.142550     17.628000
           155    7       7.539120      1.957610     16.247600
           156    5       5.916330      1.340150     19.765000
           157    7       6.239610      0.898893     18.305400
           158    5       9.708080      1.681620     17.735200
           159    5       7.555680      1.256900     17.576600
           160    5       8.773850      4.946180     17.043000
           161    7       9.521740      4.828500     18.279500
           162    7       7.454660      4.376350     17.021300
           163    7       8.667470      1.130840     18.422300
           164    5       6.743840      3.859010     19.605900
           165    7       6.514620      5.195540     19.160200
           166    7       5.568200      3.031220     19.656600
           167    7       8.083850      3.222740     19.717400
           168    5       6.743540      5.462540     17.730900
           169    7       4.933080      0.173933     16.130300
           170    7       2.570710      6.462630     17.134000
           171    5       3.597350      6.876410     16.246900
           172    5       5.330750      6.755600     16.429500
           173    7       6.618250      6.750170     16.872900
           174    7      11.467080      0.577370     15.726200
           175    5      12.903690      0.512279     16.118800
           176    7       4.950720     -1.874580     14.455500
           177    7       4.510580     -4.959030     15.682500
           178    7       0.234124     -2.017700     15.779000
           179    7      10.450300     -3.909400     14.126800
           180    5       6.232830     -2.317900     14.755700
           181    5      10.253600     -2.564280     14.776600
           182    7       7.291190     -3.191150     14.661100
           183    5       9.834280     -4.682900     15.129700
           184    7       9.136310     -1.719090     14.316200
           185    5       8.090960     -2.487800     13.587300
           186    5       9.047570     -0.448710     15.094100
           187    5       7.643430     -4.065250     15.840100
           188    5      10.716300     -0.631610     15.948800
           189    7       8.869810     -4.906900     16.053200
           190   14       4.163550     -1.378840     16.067100
           191    7       2.467630     -0.828510     16.277900
           192    5       1.459100     -1.805450     16.592100
           193    5       3.597350     -4.052500     16.246900
           194    5       5.330750     -4.173310     16.429500
           195    7       6.618250     -4.178740     16.872900
           196    7      11.163034     -2.017700     15.779000
           197    5      -0.212610     -0.631610     15.948800
           198   14       0.000000      0.000000      0.000000
           199   14       2.732230      2.732230      0.000000
           200   14       1.366110      1.366110      1.366110
           201   14       4.098340      4.098340      1.366110
           202   14       4.075420      1.407190      1.581090
           203   14       1.786850      4.508860      1.820630
           204   14       3.100040      0.621733      3.766770
           205   14       0.304790      2.978820      2.736820
           206   14       3.444620      4.654190      3.832230
           207   14       5.464460      0.000000      0.000000
           208   14       8.196680      2.732230      0.000000
           209   14       6.830570      1.366110      1.366110
           210   14       9.562800      4.098340      1.366110
           211   14       6.535610      3.748400      1.655290
           212    5       7.144430      4.517380      3.468910
           213   14       6.640670      0.833356      3.934470
           214   14       9.407420      1.213660      1.460700
           215   14       0.000000      5.464460      0.000000
           216   14       2.732230      8.196680      0.000000
           217   14       1.366110      6.830570      1.366110
           218   14       4.098340      9.562800      1.366110
           219    5       0.890066      9.111680      0.578540
           220   14       1.690970     10.063400      2.337160
           221   14       2.897910      7.968520      3.108770
           222   14       4.883980      6.476980      2.896280
           223   14       8.536640      5.815250      2.791030
           224   14       6.559910      9.205350      1.578510
           225   14       9.975100      7.258910      1.476880
           226   14       5.464460      5.464460      0.000000
           227   14       8.196680      8.196680      0.000000
           228   14       6.830570      6.830570      1.366110
           229   14       9.562800      9.562800      1.366110
           230   14       7.242910      9.332620      3.794380
           231   14      10.568300      9.768530      3.631660
           232   14      10.261400      7.230740      3.928070
           233   14       2.153070      2.633420      4.559410
           234   14       0.077290      0.178640      5.510690
           235   14      10.595900      2.643470      5.017750
           236   14      10.439400      5.200560      5.230600
           237    7       2.855280      5.686010      5.226420
           238   14       3.595330      9.421840      4.897230
           239   14       1.535910      7.013190      4.891250
           240   14       1.682800      9.415720      6.406270
           241    7       1.134080      7.719490      6.503720
           242   14       8.623250     10.635900      5.337630
           243    7       5.690420      6.567680      4.536990
           244   14       5.636850      8.233190      5.082230
           245    5       6.754970      5.629900      4.730880
           246    5       8.929620      8.580580      4.657980
           247   14       8.242440      7.674000      6.335730
           248   14       0.684445      6.155180      7.288980
           249    7       7.841260     10.278200      6.909770
           250    5       6.592740      9.581690      7.163340
           251    7       6.356530      8.143400      6.756860
           252    7       9.089070      8.396790      7.743310
           253    5       8.703890      9.746560      7.944800
           254    7       3.634140     10.338100      9.337580
           255    5       4.662070      9.502610      8.684610
           256    5       0.339751      9.139190     11.636000
           257    7       1.374080     10.249100     11.569000
           258    7       5.809300     10.257200      8.227960
           259    7       8.833620     10.551100      9.140620
           260    5       9.978420     10.195800      9.857980
           261    7      10.005900      9.267590     10.999100
           262    5       2.737340     10.190700     12.064200
           263    7       3.043710      8.858980     12.752000
           264    7       0.774019      7.866870     12.166300
           265    5       0.053232      6.765380     12.714000
           266   14      10.928910      0.000000      0.000000
           267   14      13.661140      2.732230      0.000000
           268   14      12.295020      1.366110      1.366110
           269   14      15.027250      4.098340      1.366110
           270   14      15.004330      1.407190      1.581090
           271   14      12.715760      4.508860      1.820630
           272   14      14.028950      0.621733      3.766770
           273   14      11.233700      2.978820      2.736820
           274   14      14.373530      4.654190      3.832230
           275   14      16.393370      0.000000      0.000000
           276   14      19.125590      2.732230      0.000000
           277   14      17.759480      1.366110      1.366110
           278   14      20.491710      4.098340      1.366110
           279   14      17.464520      3.748400      1.655290
           280    5      18.073340      4.517380      3.468910
           281   14      17.569580      0.833356      3.934470
           282   14      20.336330      1.213660      1.460700
           283   14      10.928910      5.464460      0.000000
           284   14      13.661140      8.196680      0.000000
           285   14      12.295020      6.830570      1.366110
           286   14      15.027250      9.562800      1.366110
           287    5      11.818976      9.111680      0.578540
           288   14      12.619880     10.063400      2.337160
           289   14      13.826820      7.968520      3.108770
           290   14      15.812890      6.476980      2.896280
           291   14      19.465550      5.815250      2.791030
           292   14      17.488820      9.205350      1.578510
           293   14      20.904010      7.258910      1.476880
           294   14      16.393370      5.464460      0.000000
           295   14      19.125590      8.196680      0.000000
           296   14      17.759480      6.830570      1.366110
           297   14      20.491710      9.562800      1.366110
           298   14      18.171820      9.332620      3.794380
           299   14      21.497210      9.768530      3.631660
           300   14      21.190310      7.230740      3.928070
           301   14      13.081980      2.633420      4.559410
           302   14      15.718480      0.888926      5.464650
           303   14      16.104400      3.320990      4.939310
           304   14      11.006200      0.178640      5.510690
           305   14      21.524810      2.643470      5.017750
           306   14      19.170810      2.271130      5.060600
           307    5      18.089620      3.926950      4.969680
           308   14      21.368310      5.200560      5.230600
           309   14      19.265780      5.364840      6.179210
           310    7      13.784190      5.686010      5.226420
           311   14      14.524240      9.421840      4.897230
           312   14      12.464820      7.013190      4.891250
           313   14      12.611710      9.415720      6.406270
           314    7      12.062990      7.719490      6.503720
           315   14      19.552160     10.635900      5.337630
           316    7      16.619330      6.567680      4.536990
           317   14      16.565760      8.233190      5.082230
           318    5      17.683880      5.629900      4.730880
           319    5      19.858530      8.580580      4.657980
           320   14      19.171350      7.674000      6.335730
           321   14      14.078920      2.852870      6.783390
           322    7      14.807140      1.231250      7.114960
           323   14      11.709078      3.487400      6.947410
           324   14      14.354970      5.197140      6.788790
           325   14      13.703500      0.090656      7.880610
           326    7      15.952680      5.825670      7.425010
           327   14      11.613355      6.155180      7.288980
           328    5      16.217010      7.317420      7.516770
           329    7      13.192610      5.824970      7.999020
           330    7      18.770170     10.278200      6.909770
           331    5      17.521650      9.581690      7.163340
           332    7      17.285440      8.143400      6.756860
           333    7      20.017980      8.396790      7.743310
           334    5      19.632800      9.746560      7.944800
           335    7      15.830770      4.769380      9.792090
           336    5      15.127840      0.309078     10.379100
           337    7      14.735160      0.291778     11.799700
           338    5      16.298360      4.806890      8.400650
           339    7      16.349200      0.996010     10.042600
           340    5      18.692910      4.674660      8.011450
           341   14      21.689210      2.528990      9.803880
           342    7      21.648610      4.222880     10.152200
           343    7      17.401700      3.919140      8.017230
           344    5      17.074640      1.733430     10.985900
           345   14      16.862570      4.507870     11.270600
           346    5      17.055370      0.586987      8.887710
           347    7      17.843640      3.028000     10.467800
           348    5      17.797920      2.859200      8.922260
           349    5      19.348140      1.040440      9.211030
           350    7      20.034850      1.978300     10.150100
           351    7      18.167580      1.538980      8.537260
           352    5      19.317550      2.887360     10.985200
           353    5      21.303810      4.410000     11.565400
           354    5      20.919940      5.105050      9.210880
           355    7      19.397100      5.052920      9.257930
           356    7      15.440690      8.073810      8.455120
           357    7      14.563050     10.338100      9.337580
           358    5      14.923550      5.819390     10.178700
           359    5      15.590980      9.502610      8.684610
           360    5      14.761790      7.322930      9.495920
           361    5      13.581630      6.187060      9.276140
           362    5      15.099640      7.048930     11.161400
           363    5      13.567290      6.307380     11.101000
           364    5      11.268661      9.139190     11.636000
           365    7      12.302990     10.249100     11.569000
           366    7      16.738210     10.257200      8.227960
           367    7      19.762530     10.551100      9.140620
           368    5      20.907330     10.195800      9.857980
           369    7      20.934810      9.267590     10.999100
           370    7      17.732590      6.071360     11.239000
           371    7      21.356910      6.345810      8.571930
           372    5      20.346760      7.472200      8.805380
           373    5      18.886500      6.196510     10.231000
           374    5      19.739950      8.338820     11.168800
           375    7      19.488570      7.441930     10.010100
           376    5      17.455250      7.328920     11.933900
           377    5      14.629260      4.069160     12.268000
           378    7      15.847210      3.776420     12.736900
           379    5      15.695960      0.953141     12.762500
           380    7      20.063570      3.582270     12.030900
           381    7      17.077470      1.286750     12.310600
           382    5      18.009260      1.533200     13.242900
           383    5      19.931310      2.964790     13.245300
           384    5      13.666250     10.190700     12.064200
           385    5      13.203610      7.763250     12.120100
           386    7      16.053040      7.647120     12.186100
           387    7      13.972620      8.858980     12.752000
           388    7      11.702929      7.866870     12.166300
           389    5      15.330970      8.529090     13.165500
           390    7      18.665000      8.177640     12.215500
           391   14     -10.928910      0.000000      0.000000
           392   14      -8.196680      2.732230      0.000000
           393   14      -9.562800      1.366110      1.366110
           394   14      -6.830570      4.098340      1.366110
           395   14      -6.853490      1.407190      1.581090
           396   14      -9.142060      4.508860      1.820630
           397   14      -7.828870      0.621733      3.766770
           398   14     -10.624120      2.978820      2.736820
           399   14      -7.484290      4.654190      3.832230
           400   14      -5.464450      0.000000      0.000000
           401   14      -2.732230      2.732230      0.000000
           402   14      -4.098340      1.366110      1.366110
           403   14      -1.366110      4.098340      1.366110
           404   14      -4.393300      3.748400      1.655290
           405    5      -3.784480      4.517380      3.468910
           406   14      -4.288240      0.833356      3.934470
           407   14      -1.521490      1.213660      1.460700
           408   14     -10.928910      5.464460      0.000000
           409   14      -8.196680      8.196680      0.000000
           410   14      -9.562800      6.830570      1.366110
           411   14      -6.830570      9.562800      1.366110
           412    5     -10.038844      9.111680      0.578540
           413   14      -9.237940     10.063400      2.337160
           414   14      -8.031000      7.968520      3.108770
           415   14      -6.044930      6.476980      2.896280
           416   14      -2.392270      5.815250      2.791030
           417   14      -4.369000      9.205350      1.578510
           418   14      -0.953810      7.258910      1.476880
           419   14      -5.464450      5.464460      0.000000
           420   14      -2.732230      8.196680      0.000000
           421   14      -4.098340      6.830570      1.366110
           422   14      -1.366110      9.562800      1.366110
           423   14      -3.686000      9.332620      3.794380
           424   14      -0.360610      9.768530      3.631660
           425   14      -0.667510      7.230740      3.928070
           426   14      -8.775840      2.633420      4.559410
           427   14      -6.139340      0.888926      5.464650
           428   14      -5.753420      3.320990      4.939310
           429   14     -10.851620      0.178640      5.510690
           430   14      -0.333010      2.643470      5.017750
           431   14      -2.687010      2.271130      5.060600
           432    5      -3.768200      3.926950      4.969680
           433   14      -0.489510      5.200560      5.230600
           434   14      -2.592040      5.364840      6.179210
           435    7      -8.073630      5.686010      5.226420
           436   14      -7.333580      9.421840      4.897230
           437   14      -9.393000      7.013190      4.891250
           438   14      -9.246110      9.415720      6.406270
           439    7      -9.794830      7.719490      6.503720
           440   14      -2.305660     10.635900      5.337630
           441    7      -5.238490      6.567680      4.536990
           442   14      -5.292060      8.233190      5.082230
           443    5      -4.173940      5.629900      4.730880
           444    5      -1.999290      8.580580      4.657980
           445   14      -2.686470      7.674000      6.335730
           446   14      -7.778900      2.852870      6.783390
           447    7      -7.050680      1.231250      7.114960
           448   14     -10.148742      3.487400      6.947410
           449   14      -7.502850      5.197140      6.788790
           450   14      -8.154320      0.090656      7.880610
           451   14     -10.508047      0.696772      7.912000
           452    7      -5.905140      5.825670      7.425010
           453   14     -10.244465      6.155180      7.288980
           454    5      -5.640810      7.317420      7.516770
           455    7      -8.665210      5.824970      7.999020
           456    7      -3.087650     10.278200      6.909770
           457    5      -4.336170      9.581690      7.163340
           458    7      -4.572380      8.143400      6.756860
           459    7      -1.839840      8.396790      7.743310
           460    5      -2.225020      9.746560      7.944800
           461    7     -10.700181      2.389160      8.219520
           462    5      -9.991360      0.389355     10.767700
           463    7      -9.969033      1.842550     10.960700
           464    7      -6.027050      4.769380      9.792090
           465    5      -9.051410      2.641340     11.538800
           466    5      -6.729980      0.309078     10.379100
           467    7      -7.122660      0.291778     11.799700
           468    5      -9.214620      5.247890     11.913800
           469    5      -5.559460      4.806890      8.400650
           470    7     -10.748526      0.072548      9.557530
           471    7      -8.612990      3.878700     12.061000
           472    7      -5.508620      0.996010     10.042600
           473    5      -3.164910      4.674660      8.011450
           474    7      -4.456120      3.919140      8.017230